LAMMPS (22 Aug 2018)
units	metal
boundary p p p
atom_style full
bond_style harmonic
angle_style harmonic
dihedral_style opls
restart 1000 rst.1 rst.2
variable		cut_off equal 10.0
timestep	    1e-3
read_restart  ./NPT.rst
  restoring atom style full from restart
  orthogonal box = (-4.79789 -4.79789 -18.9799) to (65.8012 65.8012 167.023)
  2 by 4 by 8 MPI processor grid
  restoring pair style hybrid/overlay from restart
  restoring bond style harmonic from restart
  restoring angle style harmonic from restart
  restoring dihedral style opls from restart
  24000 atoms
  13680 bonds
  25920 angles
  32400 dihedrals
  4 = max # of 1-2 neighbors
  6 = max # of 1-3 neighbors
  12 = max # of 1-4 neighbors
  16 = max # of special neighbors
include '../bond.coeff'
## IPA bond information in metal units (energy ev)

#Bond Coeffs

bond_coeff   1  11.63090054    1.5290 # C3H-C2H
bond_coeff   2  14.75564412    1.0900 # C3H-H
bond_coeff   3  11.63090054    1.5290 # C2H-C2H
bond_coeff   4  14.75564412    1.0900 # C2H-H

#Angle Coeffs

angle_coeff   1   2.53231622  112.7000 # C3H-C2H-C2H
angle_coeff   2   1.62746094  110.7000 # C3H-C2H-H
angle_coeff   3   1.62746094  110.7000 # C2H-C3H-H
angle_coeff   4   2.53231622  112.7000 # C2H-C2H-C2H
angle_coeff   5   1.62746094  110.7000 # C2H-C2H-H
angle_coeff   6   1.43214358  107.8000 # H-C3H-H
angle_coeff   7   1.43214358  107.8000 # H-C2H-H

#Dihedral Coeffs

dihedral_coeff   1    0.07551166	-0.0068138			0.0121086	0 # C3H-C2H-C2H-C2H
dihedral_coeff   2    0				0					0.0158844	0 # C3H-C2H-C2H-H
dihedral_coeff   3    0.07551166	-0.0068138			0.0121086	0 # C2H-C2H-C2H-C2H
dihedral_coeff   4    0				0					0.0158844	0 # C2H-C2H-C2H-H
dihedral_coeff   5    0				0					0.0158844	0 # H-C3H-C2H-C2H
dihedral_coeff   6    0				0					0.0138012	0 # H-C3H-C2H-H
dihedral_coeff   7    0				0					0.0138012	0 # H-C2H-C2H-H

## metal time unit is picoseconds, 1 ps = 1000 fs,
## engery unit is eV, 1 ev = 23 kcal/mol       1 kcal/mol = 0.043 ev
pair_style    	hybrid/overlay lj/cut/coul/long ${cut_off} ${cut_off}  buck/coul/long ${cut_off} table linear 39901
pair_style    	hybrid/overlay lj/cut/coul/long 10 ${cut_off}  buck/coul/long ${cut_off} table linear 39901
pair_style    	hybrid/overlay lj/cut/coul/long 10 10  buck/coul/long ${cut_off} table linear 39901
pair_style    	hybrid/overlay lj/cut/coul/long 10 10  buck/coul/long 10 table linear 39901
pair_modify mix geometric
special_bonds lj/coul 0.0 0.0 0.5
kspace_style pppm 1.0e-4
fix fSHAKE all shake 0.0001 20 0 b 2 4 # modified to the hexane shaked bond information
  0 = # of size 2 clusters
  2880 = # of size 3 clusters
  1440 = # of size 4 clusters
  0 = # of frozen angles
include '../pair.coeff_silica'

pair_coeff    	4 4 buck/coul/long 0.0 1.0 0.0                #No interactions between Si atoms
pair_coeff   	4 5 buck/coul/long 18003.757200 0.205205 133.538100
pair_coeff    	5 5 buck/coul/long 1388.773000  0.362319 175.000000         #BKS interaction in PRL 64 1955 (1990)
pair_modify   	shift yes
pair_coeff    	4 5 table ../potential_SiO2.TPF Si-O ${cut_off}
pair_coeff    	4 5 table ../potential_SiO2.TPF Si-O 10
pair_coeff    	5 5 table ../potential_SiO2.TPF O-O ${cut_off}           #See the potential file for more information
pair_coeff    	5 5 table ../potential_SiO2.TPF O-O 10           
WARNING: 1 of 39901 force values in table are inconsistent with -dE/dr.
  Should only be flagged at inflection points (../pair_table.cpp:481)
include '../pair.coeff_mix'
pair_coeff  1  1   lj/cut/coul/long    0.00286440    3.50000000
pair_coeff  1  2   lj/cut/coul/long    0.00286440    3.50000000
pair_coeff  1  3   lj/cut/coul/long    0.00193118    3.00000000
pair_coeff  1  4   lj/cut/coul/long    0.00223045    3.77671685
pair_coeff  1  5   lj/cut/coul/long    0.00532389    3.17989244

pair_coeff  2  2   lj/cut/coul/long    0.00286440    3.50000000
pair_coeff  2  3   lj/cut/coul/long    0.00193118    3.00000000
pair_coeff  2  4   lj/cut/coul/long    0.00223045    3.77671685
pair_coeff  2  5   lj/cut/coul/long    0.00532389    3.17989244

pair_coeff  3  3   lj/cut/coul/long    0.00130200    2.50000000
pair_coeff  3  4   lj/cut/coul/long    0.00150377    3.27671685
pair_coeff  3  5   lj/cut/coul/long    0.00358937    2.67989244

# change this for different systems
group liquid type 1 2 3
14400 atoms in group liquid
group silica type 4 5
9600 atoms in group silica

neighbor		3.0 bin
neigh_modify	check yes every 1 delay 0 page  100000 one 10000

reset_timestep 	0
variable    dt equal 0.001
timestep     ${dt}
timestep     0.001
variable T equal 300
# 1 pascal is equal to 9.8692316931427E-6 atm, or 1.0E-5 bar.
variable           vhigh            equal    1.0
variable           vlow             equal    0.0
variable           bar2Pa           equal    1e5
variable           ps2s             equal    1.0e-12
variable           PaS2mPaS         equal    1000
variable           viscoeff         equal    v_bar2Pa*v_ps2s*v_PaS2mPaS



variable    p equal 400     # correlation length
variable    s equal 5       # sample interval
variable    d equal $p*$s   # dump interval
variable    d equal 400*$s   
variable    d equal 400*5   

# convert from LAMMPS real units to SI
variable    kB equal 1.3806504e-23    # [J/K] Boltzmann
variable    atm2Pa equal 101325.0
variable    A2m equal 1.0e-10
variable    fs2s equal 1.0e-15
# convert from LAMMPS metal units to SI
# variable    convertM2S equal ${bar2Pa}*${bar2Pa}*${ps2s}*${A2m}*${A2m}*${A2m}
variable    convertM2S equal ${bar2Pa}*${bar2Pa}*${ps2s}*${A2m}*${A2m}*${A2m}*${PaS2mPaS}
variable    convertM2S equal 100000*${bar2Pa}*${ps2s}*${A2m}*${A2m}*${A2m}*${PaS2mPaS}
variable    convertM2S equal 100000*100000*${ps2s}*${A2m}*${A2m}*${A2m}*${PaS2mPaS}
variable    convertM2S equal 100000*100000*1e-12*${A2m}*${A2m}*${A2m}*${PaS2mPaS}
variable    convertM2S equal 100000*100000*1e-12*1e-10*${A2m}*${A2m}*${PaS2mPaS}
variable    convertM2S equal 100000*100000*1e-12*1e-10*1e-10*${A2m}*${PaS2mPaS}
variable    convertM2S equal 100000*100000*1e-12*1e-10*1e-10*1e-10*${PaS2mPaS}
variable    convertM2S equal 100000*100000*1e-12*1e-10*1e-10*1e-10*1000

compute            per_liquid_vol          liquid     voronoi/atom
compute            liquid_vol              liquid     reduce   sum   c_per_liquid_vol[1]
variable           real_liquid_vol equal  c_liquid_vol
variable           real_liquid_thickness   equal      c_liquid_vol/(lx*ly)

compute    myPress  liquid stress/atom NULL
compute    p 		liquid reduce sum c_myPress[4] c_myPress[5] c_myPress[6] # sum the pxy pxz pyz

variable liquidvol equal 166202


fix       nveall 	all 	 	 	nve


variable lpxy equal c_p[1]/${liquidvol}
variable lpxy equal c_p[1]/166202
variable lpxz equal c_p[2]/${liquidvol}
variable lpxz equal c_p[2]/166202
variable lpyz equal c_p[3]/${liquidvol}
variable lpyz equal c_p[3]/166202

fix          SS all ave/correlate $s $p $d              v_lpxy v_lpxz v_lpyz type auto file S0St.dat ave running
fix          SS all ave/correlate 5 $p $d              v_lpxy v_lpxz v_lpyz type auto file S0St.dat ave running
fix          SS all ave/correlate 5 400 $d              v_lpxy v_lpxz v_lpyz type auto file S0St.dat ave running
fix          SS all ave/correlate 5 400 2000              v_lpxy v_lpxz v_lpyz type auto file S0St.dat ave running

variable     scale equal ${convertM2S}/(${kB}*$T)*$s*${dt}*${liquidvol}
variable     scale equal 1e-29/(${kB}*$T)*$s*${dt}*${liquidvol}
variable     scale equal 1e-29/(1.3806504e-23*$T)*$s*${dt}*${liquidvol}
variable     scale equal 1e-29/(1.3806504e-23*300)*$s*${dt}*${liquidvol}
variable     scale equal 1e-29/(1.3806504e-23*300)*5*${dt}*${liquidvol}
variable     scale equal 1e-29/(1.3806504e-23*300)*5*0.001*${liquidvol}
variable     scale equal 1e-29/(1.3806504e-23*300)*5*0.001*166202

variable     v11 equal trap(f_SS[3])*${scale}
variable     v11 equal trap(f_SS[3])*2.00632494173277e-06
variable     v22 equal trap(f_SS[4])*${scale}
variable     v22 equal trap(f_SS[4])*2.00632494173277e-06
variable     v33 equal trap(f_SS[5])*${scale}
variable     v33 equal trap(f_SS[5])*2.00632494173277e-06

variable     vis equal (v_v11+v_v22+v_v33)/3.0

compute	     mobile liquid temp

thermo       $d
thermo       2000
thermo_style       custom step c_mobile temp press pe ke etotal  c_liquid_vol v_v11 v_v22 v_v33 v_vis
dump               3 all custom 20000 nve.lammpstrj id type x y z vx vy vz fx fy fz
run                5000000
PPPM initialization ...
  using 12-bit tables for long-range coulomb (../kspace.cpp:321)
  G vector (1/distance) = 0.272888
  grid = 45 45 90
  stencil order = 5
  estimated absolute RMS force accuracy = 0.00139845
  estimated relative force accuracy = 9.71167e-05
  using double precision FFTs
  3d grid and FFT values/proc = 9396 4050
Unused restart file global fix info:
  fix style: npt, fix ID: 1
Neighbor list info ...
  update every 1 steps, delay 0 steps, check yes
  max neighbors/atom: 10000, page size: 100000
  master list distance cutoff = 13
  ghost atom cutoff = 13
  binsize = 6.5, bins = 11 11 29
  4 neighbor lists, perpetual/occasional/extra = 4 0 0
  (1) pair lj/cut/coul/long, perpetual, skip from (4)
      attributes: half, newton on
      pair build: skip
      stencil: none
      bin: none
  (2) pair buck/coul/long, perpetual, skip from (4)
      attributes: half, newton on
      pair build: skip
      stencil: none
      bin: none
  (3) pair table, perpetual, skip from (4)
      attributes: half, newton on
      pair build: skip
      stencil: none
      bin: none
  (4) neighbor class addition, perpetual
      attributes: half, newton on
      pair build: half/bin/newton
      stencil: half/bin/3d/newton
      bin: standard
Per MPI rank memory allocation (min/avg/max) = 3.412 | 17.15 | 29.11 Mbytes
Step c_mobile Temp Press PotEng KinEng TotEng c_liquid_vol v_v11 v_v22 v_v33 v_vis 
       0    302.05252    302.91887   -64.491837   -183009.18    808.12699   -182201.05    166202.82   0.01667358   0.11724944   0.12792774  0.087283586 
    2000    300.78217     302.1488   -175.20576   -183007.08     806.0726   -182201.01    165154.35 -0.098250048   0.35254539   0.44624379   0.23351304 
    4000    301.57189    302.40642   -197.84412   -183007.63    806.75988   -182200.87    164164.79   0.10319143    1.0919689   0.10831183   0.43449073 
    6000    304.65663     304.6041   -279.80659   -183013.68    812.62286   -182201.06    163947.95  0.072682237   0.78266447    0.2135371    0.3562946 
    8000    302.46506     303.3781   -44.095397   -183010.38    809.35213   -182201.02    164306.35   0.35109946   0.54005879   0.11327192   0.33481006 
   10000    300.84933    303.17418   -181.02897   -183009.84    808.80811   -182201.03    165117.67   0.32960251   0.48591205   0.24307671   0.35286376 
   12000    298.78635     301.7167   -331.27595   -183006.04    804.91986   -182201.12     165719.9   0.42730638   0.41373272   0.17715437   0.33939782 
   14000    303.23487    301.78017   -257.28464   -183006.02    805.08918   -182200.93    165876.54   0.65833256   0.45714625   0.21152267   0.44233383 
   16000    300.87123    302.35327   -177.84636   -183007.61    806.61809   -182200.99     165720.8   0.56468552    0.4045184   0.18570169   0.38496854 
   18000    301.53714    301.87933   -223.33123   -183006.34    805.35373   -182200.98    165416.54   0.51191723   0.37692153   0.13388665   0.34090847 
   20000    305.60501    304.85987   -140.69199   -183014.27     813.3052   -182200.96     164626.5   0.51454251   0.33518452   0.12430358   0.32467687 
   22000    305.68736    303.78795    60.496534   -183011.43    810.44554   -182200.99    163705.34   0.47669842   0.31866702   0.10843636   0.30126727 
   24000    303.46498    303.06691   -57.444926   -183009.36    808.52194   -182200.84    163006.77   0.44518611   0.29558069   0.10755536   0.28277405 
   26000    303.94573    303.66846   -22.817009   -183011.02    810.12676   -182200.89     163630.8   0.47880573   0.29817726   0.19380576   0.32359625 
   28000    302.69274    302.06999    -124.8669   -183006.85    805.86236   -182200.99    164087.29    0.4681288   0.27651266   0.25370046   0.33278064 
   30000    302.22943    303.05886    47.146596   -183009.32    808.50047   -182200.82    164064.33   0.50058865   0.25030201   0.24566726   0.33218597 
   32000    303.70792    303.17406   -175.22366   -183009.68    808.80781   -182200.87    163345.46   0.68728213   0.24237154   0.26554123    0.3983983 
   34000     304.9149    304.55073   -102.04264   -183013.38    812.48048    -182200.9    162732.48   0.73175865   0.24372062   0.29062054   0.42203327 
   36000    305.33574    303.10586    -189.6173   -183009.38    808.62585   -182200.75    162700.45   0.82703258   0.24033332   0.27479279   0.44738623 
   38000    302.33403    301.54164  0.093433617    -183005.3    804.45282   -182200.85    163433.13   0.90463379   0.22352583   0.25428254   0.46081405 
   40000    301.65397    300.89706   -245.45869    -183003.5    802.73321   -182200.77    165387.27   0.94270636   0.22573535   0.24023885   0.46956019 
   42000     302.0718    300.39553   -289.46953   -183001.91    801.39523   -182200.51    166462.02   0.93018677   0.21959443   0.23384758   0.46120959 
   44000    300.70729    301.94474   -102.52849   -183006.18    805.52822   -182200.65    167018.14   0.89730013   0.20890054   0.22825622   0.44481896 
   46000    300.79502    301.59964   -175.57527   -183005.26    804.60755   -182200.65    167292.79   0.85442783   0.19635223   0.23724485   0.42934164 
   48000      301.881    302.29921   -183.88438   -183007.24    806.47388   -182200.77    167427.69   0.88057103   0.19822545   0.22335106   0.43404918 
   50000    301.72057    301.77181   -189.83342   -183005.78    805.06688   -182200.71    166625.79   0.86493941    0.1940559   0.21308991   0.42402841 
   52000    301.83449    302.73731   -78.974871   -183008.25    807.64263   -182200.61    165697.77   0.93271017   0.18286083   0.20434256   0.43997119 
   54000    303.01986    303.57951   -161.48028   -183010.65    809.88945   -182200.76     164960.5   0.89032849   0.19557438   0.19940476   0.42843588 
   56000    305.68679    303.44713   -73.840929   -183010.06    809.53628   -182200.52     164807.8   0.87538478   0.17798345   0.19476547   0.41604457 
   58000    304.22287    303.63286   -319.84497   -183010.67    810.03177   -182200.64    165383.36   0.84005943   0.17900178   0.19092547   0.40332889 
   60000    304.78273    304.81231    59.845318   -183013.75    813.17832   -182200.57    165699.12   0.83444943   0.18552872   0.19835989   0.40611268 
   62000    305.10286    304.34699   -134.56316   -183012.53    811.93694    -182200.6    165561.16   0.83783137   0.18139121   0.19445251   0.40455836 
   64000    304.05489    303.00911   -146.51149   -183008.92    808.36774   -182200.55    165708.63   0.83466686   0.17865635   0.19226579     0.401863 
   66000    301.09594    302.92323   -169.51501   -183008.59    808.13862   -182200.45    166578.82   0.81173778   0.16766196   0.18878053   0.38939342 
   68000    297.51663    300.09844    44.772491   -183000.98    800.60265   -182200.38    167033.99   0.78962442   0.16273029   0.24277931   0.39837801 
   70000    303.32435    302.13572   -215.20227   -183006.56    806.03771   -182200.52    166335.06   0.77428508    0.1718305   0.23860048   0.39490535 
   72000    305.54072    305.23119   -259.37728   -183014.73    814.29581   -182200.43    165388.23   0.76903151     0.166914   0.24411874   0.39335475 
   74000    300.00299    300.90662   -44.398514    -183003.2    802.75872   -182200.44    164583.66   0.75847812   0.17341097   0.23927758   0.39038889 
   76000    306.92466    306.00744   -104.80998   -183016.94    816.36669   -182200.58    163453.87     0.772036   0.16597758   0.23024545   0.38941968 
   78000    305.08954    305.15193   -6.2241346   -183014.59    814.08437   -182200.51    163228.83   0.75131146   0.16489459   0.23348264   0.38322957 
   80000    302.88673    303.66285   -47.474413   -183010.82     810.1118   -182200.71    163854.54   0.74870449   0.16336834   0.22608328   0.37938537 
   82000    300.86839    302.24101   -117.63236    -183006.9     806.3186   -182200.58    165077.97   0.73440525   0.16059726   0.22111832   0.37204028 
   84000    304.11328     303.5585   -48.673574   -183010.34    809.83342   -182200.51    166198.06   0.71716754   0.17454968   0.21841518   0.37004413 
   86000    303.49336    304.11901     -209.707   -183011.81    811.32874   -182200.48    166707.89   0.70637518   0.17069108   0.21394823    0.3636715 
   88000    303.60915     303.6702   -249.26214   -183010.54    810.13141   -182200.41    166117.79   0.71315343   0.16657443   0.21484087   0.36485624 
   90000    304.88824    303.25607   -152.39205   -183009.49    809.02659   -182200.47     164776.4   0.74129446   0.16120122   0.21372189   0.37207252 
   92000    301.69394    301.38527    14.631509   -183004.45    804.03567   -182200.41    163631.48    0.7278565   0.18520571   0.21063693   0.37456638 
   94000    303.29565    303.39802   -146.39051   -183009.87    809.40528   -182200.46    163164.31   0.71285333    0.1870711   0.21514446   0.37168963 
   96000    303.87145    303.57896   -20.498207   -183010.27      809.888   -182200.38    163112.04   0.71068097   0.17906633    0.2194419   0.36972973 
   98000    303.06574    303.19333   -189.08938   -183009.28    808.85922   -182200.42    163550.42   0.70853024   0.18606562   0.21500684   0.36986757 
  100000    303.01457     304.2358   -469.00875   -183012.07    811.64032   -182200.43    164511.66   0.70808363   0.19205865   0.21267125   0.37093784 
  102000    303.04979    304.25965   -287.90141   -183012.14    811.70393   -182200.43    165169.18   0.69993364   0.18960561   0.21831725    0.3692855 
  104000    302.11983    303.06947   -109.49279   -183008.84    808.52878   -182200.31     165861.3   0.68427543   0.18467919   0.25311881   0.37402447 
  106000    300.68336    302.55181   -79.054773   -183007.45    807.14777   -182200.31    165976.72   0.67197723   0.18614875   0.29776585   0.38529727 
  108000    300.23393    302.04071   -67.685469   -183006.03    805.78425   -182200.25    166364.63   0.65813415   0.18398788   0.29270665   0.37827623 
  110000    303.52634    303.42836   -156.25581   -183009.78    809.48622   -182200.29     166521.6   0.64620625   0.18642164   0.28810197   0.37357662 
  112000    300.96382    302.51203    39.473637   -183007.22    807.04163   -182200.18    166481.12   0.63795598   0.17786222   0.28260665   0.36614162 
  114000    307.30156    305.97052   -231.84145   -183016.56    816.26818   -182200.29     165775.1   0.62282612   0.17297368   0.28327199    0.3596906 
  116000     302.7181    303.67775   -299.08898   -183010.33    810.15154   -182200.17    165073.69   0.61618331    0.1705067   0.28189441   0.35619481 
  118000     303.8372    305.28454   -177.64992   -183014.82    814.43814   -182200.38    165250.98   0.60758887   0.17049766   0.28048478   0.35285711 
  120000    302.97869    302.87112   -204.50606   -183008.27    807.99961   -182200.27    165436.93    0.6064502   0.16838395   0.28011668   0.35165028 
  122000    302.07518     301.6843     106.3674   -183005.02    804.83341   -182200.19     165780.5   0.61699076   0.16773735   0.27639861   0.35370891 
  124000    303.55001    303.68646   -245.76265   -183010.27    810.17478    -182200.1     165946.7   0.61191174   0.16835714   0.26550125   0.34859004 
  126000    302.56985    303.27691   -114.46461   -183009.25    809.08219   -182200.17    165669.87   0.61305668   0.16715236   0.26194393   0.34738432 
  128000    302.47754    304.70517   -291.72449   -183013.04    812.89249   -182200.15       165234   0.62438148   0.16853268   0.26793645   0.35361687 
  130000     301.1848    303.25782   -207.46564   -183009.38    809.03125   -182200.35    164754.93   0.61649155   0.16361745   0.27409265   0.35140055 
  132000    305.08342    304.85321   -184.17194   -183013.45    813.28742   -182200.17    164467.15   0.61988045   0.16461377   0.26911384   0.35120269 
  134000    305.65885    304.57972   -141.19639   -183012.75    812.55782   -182200.19    164044.24   0.61892912   0.16237186   0.26744797   0.34958298 
  136000    300.43229    302.97038   -356.11006   -183008.43    808.26443   -182200.17    163972.37   0.61322422   0.16674553   0.26537648   0.34844875 
  138000     300.4796    302.26125   -33.089632    -183006.4     806.3726   -182200.03    163878.22   0.61998934   0.16536845   0.25821678   0.34785819 
  140000    302.47244    303.88809   -134.25729   -183010.79    810.71269   -182200.08    164638.33   0.61161403   0.16388688   0.25934566   0.34494886 
  142000    300.76144    302.26665   -236.11077   -183006.45      806.387   -182200.06    164572.14   0.60542278   0.17012771   0.25936205   0.34497085 
  144000    302.01151    301.95243    53.671403   -183005.58    805.54874   -182200.03    164074.71   0.61200511   0.17829623   0.26150436    0.3506019 
  146000    299.41816    300.21939   -435.24703   -183001.11    800.92533   -182200.18    163693.75   0.60258756   0.17710417   0.25971508   0.34646893 
  148000    303.84631    303.87873    50.560452   -183010.98    810.68771   -182200.29    163774.12   0.59666486   0.17581058   0.26481584   0.34576376 
  150000    300.44796    301.57688   -273.88022   -183004.72    804.54684   -182200.17    164319.21   0.61026311   0.17279709   0.26633251   0.34979757 
  152000    301.20409    303.13904   -57.069649   -183008.89    808.71437   -182200.17    165028.23   0.59991521   0.16965894   0.28614661   0.35190692 
  154000    304.72078    302.95264   -10.844441   -183008.26    808.21709   -182200.04    164526.93   0.58970272   0.17010601   0.29080345   0.35020406 
  156000    303.88127    303.45755    59.547948   -183009.74     809.5641   -182200.17     164196.8   0.58444699   0.16696611    0.2902084   0.34720717 
  158000    304.06969    303.61188   -138.27024   -183010.21    809.97582   -182200.23    164079.76   0.58463369   0.16543853   0.28623223   0.34543481 
  160000    302.77321    303.13538   -259.27034   -183008.87    808.70461   -182200.17    164499.46   0.57627298   0.16933442   0.28290247   0.34283662 
  162000    300.28123    301.49027   -286.13713   -183004.38    804.31577   -182200.07    165327.57   0.57443527   0.17057126   0.27849776    0.3411681 
  164000    302.75318    302.68631   -114.58843   -183007.73    807.50657   -182200.22    165179.91   0.57789078   0.17413985   0.28114457   0.34439173 
  166000    304.29521     304.3677    36.356933   -183012.09    811.99218    -182200.1    165388.04   0.60727117   0.18086143   0.27958287   0.35590516 
  168000    302.60201    302.56518   -151.37835   -183007.44    807.18342   -182200.26    165850.46    0.6430193   0.18126013   0.27698764   0.36708902 
  170000    302.92521    303.40474    -28.47865   -183009.58     809.4232   -182200.16    166057.36    0.6372733   0.18092211   0.29336886   0.37052142 
  172000    303.51286    301.75021   -195.23255   -183005.06    805.00925   -182200.05    165737.02   0.63271905   0.17933976   0.29141922   0.36782601 
  174000     301.7072    301.80382   -238.06988   -183005.37    805.15226   -182200.22    165947.66   0.65382145   0.17731608   0.28823081   0.37312278 
  176000     300.1651    299.96694   -208.24955   -183000.19    800.25184   -182199.93    165567.65    0.6936443   0.17624717   0.28438229   0.38475792 
  178000    306.47288    303.08107   -538.74565    -183008.7    808.55971   -182200.14    164570.21   0.70203032    0.1748264   0.28102929     0.385962 
  180000    304.91217    303.31294    191.81557   -183009.37     809.1783   -182200.19     163177.7   0.70557122   0.17325078   0.28425113   0.38769104 
  182000    306.55442    304.53932   -114.76402   -183012.65    812.45003    -182200.2    162801.53   0.69935411   0.17262684   0.30919912   0.39372669 
  184000    304.32937    303.62214    -139.0531   -183010.21    810.00318   -182200.21    163309.04   0.69690176   0.17117651   0.30892687   0.39233505 
  186000    306.46365     304.4389    -176.8485   -183012.38    812.18214   -182200.19    164351.39   0.68889655   0.17018686   0.30143368   0.38683903 
  188000    301.40149    301.61951   -62.860225   -183004.73    804.66056   -182200.07    165913.91   0.68634679   0.18302238   0.30252635   0.39063184 
  190000    303.22002    301.55266    -121.3922   -183004.43    804.48222   -182199.95    167365.51   0.68292524   0.19377756    0.3045382     0.393747 
  192000    299.61749    300.63114   -311.13171   -183002.07    802.02379   -182200.05    167632.73   0.68211471   0.19310108   0.30087733   0.39203104 
  194000    300.93795    301.54449   -78.259815    -183004.5    804.46043   -182200.03    166745.45   0.68445163   0.19434498   0.29756557   0.39212073 
  196000    304.61927    302.52487   -336.51202   -183007.17     807.0759   -182200.09    165821.57   0.68531485   0.19673177   0.29540676   0.39248446 
  198000    306.49197    305.00544   -122.44633   -183013.67    813.69354   -182199.98    165294.81   0.69035378   0.19539514    0.2913629   0.39237061 
  200000    304.80457    302.65854    62.846006    -183007.4     807.4325   -182199.97    165553.02   0.69782715   0.19386512   0.29163216   0.39444148 
  202000    307.06366    302.93435    -250.6657    -183008.1    808.16831   -182199.93    165490.96   0.69617556   0.19625567    0.3087812   0.40040415 
  204000    308.54115    306.54246    110.11971   -183017.88    817.79403   -182200.09    165605.14   0.68917072   0.19437221   0.30337792   0.39564029 
  206000    305.32147    305.21331   -57.137614   -183014.27     814.2481   -182200.02    165295.15   0.68353011   0.19269299   0.29941024   0.39187778 
  208000    305.39752    304.05872   -331.35292   -183011.11    811.16791   -182199.94    165155.93   0.68324077   0.19194361   0.29639954   0.39052797 
  210000    305.21007    304.20918   -134.50893   -183011.68     811.5693   -182200.11    165233.55   0.67631038   0.18961591   0.29481795   0.38691475 
  212000    302.44143    300.08259   -352.71965   -183000.53    800.56037   -182199.97    165513.01   0.67011824   0.19394864   0.29463231   0.38623306 
  214000    305.84759     304.5482    72.823917    -183012.5    812.47372   -182200.03    165557.53   0.67023419   0.19387007   0.29133067   0.38514498 
  216000    304.02818    304.21241   -123.01864   -183011.73    811.57791   -182200.16    165459.04   0.67657005   0.19299096   0.28718783   0.38558294 
  218000    303.63166    303.74167   -179.45516   -183010.33    810.32208   -182200.01    165578.58    0.6812328   0.19140644    0.2832917   0.38531031 
  220000    302.49959     303.1952   -73.139874   -183008.91    808.86419   -182200.05     166472.1   0.69137087   0.18937821   0.28243877   0.38772929 
  222000    304.89669    303.28146   -130.12646   -183009.07    809.09433   -182199.98    167284.22   0.71287862   0.18849568   0.27967106   0.39368179 
  224000    302.35611     302.6378    -142.8654   -183007.37    807.37716   -182199.99    167271.15   0.73593647   0.18641596   0.28023387    0.4008621 
  226000    300.56649       301.71   -542.43941   -183004.84    804.90198   -182199.94    166320.97   0.76577265   0.18617367   0.27737711   0.40977448 
  228000    301.58192    303.40936   -168.49938   -183009.38    809.43553   -182199.94    165378.06   0.77396645   0.18457719   0.27491629   0.41115331 
  230000    305.00619    302.43607   -120.88902   -183006.67    806.83899   -182199.83    164407.14   0.78402679   0.18307445   0.27815424   0.41508516 
  232000    301.63253    302.83689   -428.56741   -183007.79    807.90828   -182199.88    164314.45   0.78635513   0.18136293   0.27174034    0.4131528 
  234000    301.54058    301.05992    -60.18911   -183003.11    803.16768   -182199.94    164934.32   0.78088814   0.18034416   0.27259342   0.41127524 
  236000    301.76497    303.11488   -179.79317   -183008.51    808.64991   -182199.86    165344.66   0.78679996   0.17947599   0.27102411   0.41243335 
  238000    300.21222    300.95267   -86.026572   -183002.72    802.88157   -182199.84    165824.42   0.78806134    0.1798514   0.26878375   0.41223217 
  240000    301.34711     302.4193    45.318306   -183006.78    806.79426   -182199.98    165747.87   0.78098519   0.17901244   0.26663941   0.40887901 
  242000    300.88743    303.24204    13.098555    -183008.7    808.98914   -182199.71    165813.57    0.7746646   0.17870606   0.26572324   0.40636463 
  244000    299.22478    300.17618   -255.04889   -183000.57    800.81004   -182199.76    166082.73    0.7730742    0.1777097   0.26495832   0.40524741 
  246000    303.17333    303.76086   -254.20747   -183010.22    810.37327   -182199.84    166597.79   0.76545443   0.17630671   0.26209516   0.40128543 
  248000     298.9393    302.74031   -249.16643   -183007.41    807.65063   -182199.76     166685.3   0.76268024   0.17516944   0.26049641    0.3994487 
  250000    300.29323    302.92004    -212.6321   -183007.95    808.13013   -182199.82    166256.15   0.76367333   0.17380951    0.2581933   0.39855871 
  252000    298.46471    300.71035   -396.92536   -183002.12    802.23511   -182199.89    165523.92   0.75821025   0.17598777   0.25533414   0.39651072 
  254000    300.27956    303.24333    -118.3454   -183008.94    808.99259   -182199.95     165090.8   0.75596762   0.18293702   0.25496604   0.39795689 
  256000    299.06181     303.6051   -176.95142   -183009.67    809.95773   -182199.71    164938.08   0.76245946   0.18379168   0.25249828   0.39958314 
  258000    298.89996    302.26784     113.3574   -183006.05    806.39017   -182199.66    164330.21   0.76728405   0.18219658   0.25444735   0.40130933 
  260000    300.40448    302.12304   -146.80692   -183005.73    806.00387   -182199.72    164422.36   0.76579016   0.18126023   0.24976919   0.39893986 
  262000    301.29072    303.49227   -57.315355   -183009.33    809.65673   -182199.67    165120.67   0.75900332   0.17960673   0.24822241   0.39561082 
  264000    300.02497    302.09905   -145.51097   -183005.53    805.93989   -182199.59    166268.76   0.75436169    0.1795772   0.24730694   0.39374861 
  266000    301.11479    303.28685   -346.46961   -183008.87     809.1087   -182199.76    166328.26   0.74951598   0.17779705   0.24585145   0.39105483 
  268000    302.82798    303.64545   -262.93898    -183009.8    810.06537   -182199.74    165542.53     0.745264   0.17901733   0.24424715   0.38950949 
  270000    301.98704    302.29265   -91.255307   -183006.21    806.45637   -182199.75    164576.12   0.73877832   0.17718492   0.24238459   0.38611595 
  272000    300.54728    303.27746   -40.430352   -183008.75    809.08364   -182199.66    164577.09   0.73295197   0.18477421   0.24082024   0.38618214 
  274000    300.43921    302.43893   -249.39462   -183006.52    806.84661   -182199.67    165215.36   0.72806054   0.18945793   0.24129083   0.38626977 
  276000    303.62094    304.28289   -176.28673   -183011.44    811.76592   -182199.68    165658.82   0.72373232    0.1876433   0.24070269    0.3840261 
  278000    297.15165    300.70821   -68.074134   -183001.81    802.22939   -182199.58    165648.02   0.71959053   0.18869597   0.24250501   0.38359717 
  280000    304.12239    304.75631     114.5249   -183012.73    813.02892    -182199.7    165082.38   0.71416028   0.18731572   0.24281648   0.38143083 
  282000    300.71203    303.04955   -134.98935   -183008.15    808.47562   -182199.68     164576.9   0.71391789   0.18683613   0.24331319   0.38135573 
  284000    300.30844    301.85478   -103.78345   -183004.96    805.28822   -182199.67    164219.69   0.70908002   0.18780475   0.24417378   0.38035285 
  286000    302.47557    304.61105   -170.19919   -183012.26    812.64139   -182199.62    164833.74   0.70427056   0.19293511   0.24413895    0.3804482 
  288000     303.1703    301.31404   -175.66356   -183003.42    803.84564   -182199.57    165003.56   0.70183562   0.19472966   0.24195242    0.3795059 
  290000    300.98522    303.03686   -307.25522   -183008.03    808.44179   -182199.59    165144.03   0.69597455   0.19413321   0.24103137   0.37704638 
  292000    300.85863    301.83206   -196.12651   -183004.94    805.22762   -182199.71    165245.25   0.69481459   0.19936392   0.24159506   0.37859119 
  294000    299.28804    301.15461    -230.7192   -183003.04    803.42031   -182199.62    165400.92   0.69177685   0.20253885   0.23975338   0.37802303 
  296000    300.27899    300.84866   -46.794476   -183002.28    802.60409   -182199.67    165616.89   0.68634406   0.20110906   0.23873806   0.37539706 
  298000    303.45827    303.63588   -81.127016   -183009.75    810.03985   -182199.71    165521.14   0.68301297   0.20003958   0.23955925   0.37420393 
  300000    303.00055    302.88742   -84.512247   -183007.78    808.04309   -182199.74    165215.22   0.68610955   0.19942562   0.24621305   0.37724941 
  302000    304.92783    303.74031   -194.03689   -183010.11    810.31843    -182199.8    165167.84   0.69451445   0.20244952   0.24419891   0.38038763 
  304000    299.86028    301.39362   -335.95759   -183003.87    804.05795   -182199.81    164948.05   0.68996219   0.20601797   0.24826563   0.38141526 
  306000    300.54188    303.04333    -5.196789   -183008.19    808.45903   -182199.73    164725.81   0.68916421   0.20450773   0.24451183   0.37939459 
  308000     300.9243    302.68301   -274.28535    -183007.2    807.49778    -182199.7    165219.98   0.68418892   0.20334478   0.24338576   0.37697315 
  310000    304.88878    303.62446   -64.478064   -183009.64    810.00939   -182199.63    165555.64   0.68562454    0.2034252   0.24256999   0.37720658 
  312000    299.75739     300.8385   -95.767826   -183002.18      802.577   -182199.61    165994.59   0.68265212   0.20288957   0.24074045   0.37542738 
  314000    304.05064    303.27156   -185.26196   -183008.75    809.06791   -182199.68    165931.12    0.6781125   0.20211937   0.24689033    0.3757074 
  316000    301.48935    304.29617   -193.90739   -183011.42    811.80135   -182199.62     165296.6   0.67678615   0.20848419   0.24806509   0.37777848 
  318000    301.28448    304.28975     163.0855   -183011.35    811.78423   -182199.57    164920.84   0.67473745   0.21190467   0.24671626   0.37778612 
  320000    302.60235    303.76322   -378.60083   -183010.07    810.37956   -182199.69    164797.87   0.67309782   0.21871665   0.24704588   0.37962012 
  322000    301.77279    304.14365   -124.41634   -183010.99    811.39448    -182199.6    164943.13   0.67393543   0.21609231   0.24762965   0.37921913 
  324000    301.79802    304.06902    2.0596098    -183010.8    811.19538    -182199.6    165333.17     0.669368   0.22128766   0.24836606   0.37967391 
  326000    298.77585    301.53606    31.461205   -183004.04    804.43793    -182199.6    165730.61   0.66470993   0.23128461   0.25047199   0.38215551 
  328000    305.83039     303.0844   -184.84763   -183008.15    808.56861   -182199.58    165621.88   0.67020949    0.2247528   0.24646706   0.38047645 
  330000    302.43221    301.44173   -131.54219   -183003.64    804.18628   -182199.46    165758.23   0.66797231   0.22277926   0.24410536   0.37828564 
  332000    305.00005     304.0574    13.908328   -183010.62    811.16436   -182199.46    165325.39   0.66397401   0.22179998   0.24754782   0.37777394 
  334000    304.32617    303.89342   -271.57939   -183010.33    810.72692   -182199.61     165006.5    0.6625525   0.22029314   0.25725763   0.38003442 
  336000    300.86862     302.6892    -50.17971   -183006.99    807.51428   -182199.48    164782.81   0.66227249   0.21874612   0.25891976   0.37997946 
  338000     304.9357    302.12446   -15.822755   -183005.52    806.00768   -182199.51    164214.82    0.6596425   0.21924876    0.2627378   0.38054302 
  340000    300.98075    302.99724   -121.17457   -183007.74    808.33608    -182199.4    164417.62   0.65576822   0.22065117   0.25902508   0.37848149 
  342000    302.70148    301.42997   -104.75611   -183003.82     804.1549   -182199.66    164499.86   0.65884707    0.2308376   0.26012071   0.38326846 
  344000    308.04879    304.63897   -160.13139   -183012.28    812.71588   -182199.56    164855.35   0.65445678   0.23200473   0.25909649   0.38185267 
  346000    302.40539    300.93413   -85.486762    -183002.4    802.83211   -182199.57    165355.56   0.65219981   0.22973605   0.25775698   0.37989762 
  348000      301.037    302.16626   -114.55756   -183005.55     806.1192   -182199.43    166041.81   0.65272081   0.22810312   0.25714367   0.37932253 
  350000    300.97686    300.69742    -107.3027    -183001.5    802.20061    -182199.3    166844.11   0.65526739   0.22788033   0.25449018   0.37921263 
  352000    302.72816     302.7129   -260.86777   -183007.08    807.57752    -182199.5     167766.3   0.65245013   0.22583814   0.25894266   0.37907698 
  354000    302.99792    303.65868   -49.076789   -183009.48    810.10067   -182199.38    167648.98   0.65116332   0.22603242   0.25465582   0.37728385 
  356000     301.1969    302.66332   -76.674455   -183006.83    807.44523   -182199.39    166898.84   0.64549791   0.22387211   0.25325893   0.37420965 
  358000    301.67805    302.47171    -237.0234   -183006.41    806.93407   -182199.47    165922.92   0.64396884   0.22278594   0.25399444   0.37358307 
  360000    301.90481    302.66073   -193.79518   -183006.98    807.43835   -182199.54    164722.41     0.640318   0.22119809   0.25316803   0.37156137 
  362000    304.69392    304.14078   -167.79669      -183011    811.38681   -182199.61    163874.19   0.63822008   0.22471219   0.25640223    0.3731115 
  364000    305.86017    304.68526   -46.269966   -183012.29    812.83938   -182199.45    164755.57   0.63615953   0.22801293   0.25784139   0.37400462 
  366000    305.82624    304.18104   -20.076698   -183010.84    811.49422   -182199.35     166447.6   0.63141632   0.22740324   0.25664967   0.37182308 
  368000    305.73389    304.87824    97.613652   -183012.85    813.35422    -182199.5     167695.1   0.63205264   0.22852975   0.25523365   0.37193868 
  370000    300.76783    300.86362    10.127662   -183002.06    802.64401   -182199.41    168545.06      0.63978   0.22897908   0.25547615   0.37474508 
  372000    304.79621    303.22205   -188.29719   -183008.19    808.93581   -182199.25    168337.71   0.64086616   0.22912787   0.25599017   0.37532807 
  374000    301.55941    301.88951    56.527012   -183004.76    805.38088   -182199.38    167655.49   0.64781805   0.22765984   0.25508455   0.37685415 
  376000    302.62321    302.50812   -149.03725   -183006.46    807.03121   -182199.43    166555.89   0.66754525   0.22856792   0.25423395   0.38344904 
  378000    305.75513     304.1977   -169.09797   -183011.01    811.53866   -182199.47     165278.9   0.66015889   0.22714144   0.25604373   0.38111469 
  380000    305.02364    303.16644   -203.74647   -183008.11    808.78748   -182199.32    164524.02   0.66033987   0.22579658   0.25458812   0.38024152 
  382000    307.57809    305.12757     -273.075   -183013.55    814.01938   -182199.53    164892.05   0.66590503   0.22572147   0.26173397   0.38445349 
  384000    302.34177    303.39542   -18.959033   -183008.79    809.39833   -182199.39    165692.94   0.66281495   0.22941137   0.26179353   0.38467328 
  386000    306.42799    305.35749   -172.81573   -183014.02    814.63274   -182199.39    165564.19   0.66196429   0.22759388   0.26046739   0.38334185 
  388000    305.26847    303.65847   -263.36779   -183009.63     810.1001   -182199.53     165045.3   0.65812252   0.22701495   0.26014454   0.38176067 
  390000    302.70491    303.21253   -207.47874   -183008.14    808.91042   -182199.23    164724.23   0.65483048   0.22557487   0.26092387   0.38044308 
  392000    304.46553    303.99431     -126.769   -183010.42    810.99605   -182199.42    164270.11   0.65245591   0.22531355   0.26047438   0.37941462 
  394000    302.29196    301.82528   -92.119595   -183004.51    805.20953    -182199.3    163526.37   0.65350144   0.22360349   0.25788237    0.3783291 
  396000    304.26562    302.21675    167.10322   -183005.52    806.25389   -182199.26     162681.6   0.64987264   0.22662463   0.25779381   0.37809703 
  398000    303.84163    304.22327    17.335721   -183010.95    811.60687   -182199.35    163421.05   0.65024773   0.22715708   0.25616457   0.37785646 
  400000    303.04571    303.20599    44.061892   -183008.19    808.89299    -182199.3    164671.06   0.65135337   0.22564365   0.25825529   0.37841744 
  402000    304.37359    302.46811   -248.87228   -183006.31    806.92445   -182199.39    165487.91   0.64978737   0.22481387   0.25441603   0.37633909 
  404000    301.22081    301.97324   -123.89694   -183004.89    805.60425   -182199.28    165820.37   0.65813238   0.22370613   0.25314994   0.37832948 
  406000    300.99114    302.12729   -90.535743    -183005.4    806.01523   -182199.39    165915.19   0.65634792   0.22469925   0.25286218   0.37796979 
  408000    300.78002    302.43907   -259.54713   -183006.09      806.847   -182199.24    165762.78    0.6557769   0.22335708   0.25219375   0.37710924 
  410000    299.40964     300.9584   -86.375471   -183002.15    802.89686   -182199.25    165179.04   0.65562208   0.22309496   0.25085302   0.37652335 
  412000    299.59641    301.80332   -215.98637   -183004.47    805.15094   -182199.32    164133.83   0.65926353   0.22204767    0.2498595    0.3770569 
  414000     303.5306    303.95791   -91.241767    -183010.2    810.89894    -182199.3    163235.66   0.66760495   0.21987016   0.24973415   0.37906975 
  416000    299.12534     301.4298    20.968992   -183003.44    804.15445   -182199.29    162709.56   0.66629888   0.21805983   0.25062833   0.37832901 
  418000    304.82464    303.36465    81.362596    -183008.9    809.31625   -182199.58    163512.98   0.66366432   0.21769809   0.24956369   0.37697537 
  420000    299.16702    302.74462    0.7651846   -183006.98    807.66213   -182199.32    165709.85   0.66471669   0.21928944   0.24940865   0.37780493 
  422000    298.42672    302.08519   -75.834622   -183005.15    805.90292   -182199.25    166995.48   0.66261438   0.21872817    0.2495594   0.37696732 
  424000     303.0356    303.26597   -225.52808   -183008.45      809.053    -182199.4    166946.46   0.66658877   0.21821341   0.25620189   0.38033469 
  426000    300.56255    303.59851   -305.84997    -183009.2    809.94015   -182199.26    165635.17   0.66191587   0.22461055     0.263019   0.38318181 
  428000    302.30453    303.47014   -164.84195   -183009.05    809.59767   -182199.45    164163.25   0.65856232   0.22779605   0.26201196   0.38279011 
  430000    302.79793    302.51907    39.956726   -183006.48    807.06043   -182199.42    163427.92   0.65779326   0.22806652   0.26261374   0.38282451 
  432000    302.84723    303.12513   -135.97723   -183008.17    808.67725   -182199.49    163586.76   0.65841926   0.22906724   0.26170703   0.38306451 
  434000    299.92465    301.36981    -232.9729   -183003.49    803.99441    -182199.5     164577.1   0.65527543   0.22900303   0.26071109   0.38166319 
  436000    300.97343     303.2647   -198.62628   -183008.41    809.04961   -182199.36     165136.4   0.65922415   0.22770095   0.26140249   0.38277586 
  438000    298.34366    302.19868   -313.66089    -183005.6    806.20567   -182199.39    165555.95   0.65897949   0.22689485   0.25838668   0.38142034 
  440000    301.71067    302.73219   -66.854463   -183006.92    807.62898   -182199.29    166494.52   0.65638294   0.22485742   0.25757149   0.37960395 
  442000    300.83186    302.87279   -103.06307   -183007.38    808.00406   -182199.38    166957.27    0.6569351   0.22447774   0.25623698    0.3792166 
  444000    301.54077    302.39619    7.4474811   -183006.06     806.7326   -182199.32    166221.61   0.65714538   0.22332264   0.25444289   0.37830364 
  446000    297.21764    299.93789    57.974408   -182999.49    800.17434   -182199.31    165131.16    0.6638934   0.22521626   0.25330755   0.38080574 
  448000    304.58064    304.73866   -189.53243   -183012.52    812.98183   -182199.54    163875.24   0.66630883   0.22466941   0.25153552   0.38083792 
  450000     301.0825    302.40986   -74.519733   -183006.12    806.76906   -182199.35    164316.03   0.66963716   0.22099815   0.25139339   0.38067623 
  452000    300.96334    303.95987   -437.55243   -183010.25    810.90418   -182199.35    165552.71   0.67033514   0.22144799   0.25286716   0.38155009 
  454000    303.78343    302.99366   -269.24423   -183007.72    808.32654   -182199.39    166975.17   0.67815232   0.22097501   0.25341272   0.38418001 
  456000    300.18403    299.40011   -32.670458    -182997.8    798.73964   -182199.06    167929.14   0.68345424   0.22070636   0.25273752   0.38563271 
  458000    302.07673    303.99163   -17.816692   -183010.24    810.98891   -182199.25    168073.52   0.68992073   0.21971376   0.25290606   0.38751352 
  460000    300.43577    301.78971   -177.84947   -183004.24    805.11462   -182199.13       167683    0.6896834   0.21919285   0.25279128   0.38722251 
  462000    300.64411    301.76879   -179.66087   -183004.46    805.05883    -182199.4    167015.76   0.68697714   0.21801721    0.2529652   0.38598651 
  464000    303.23755    303.70083   -237.79672   -183009.52     810.2131   -182199.31    166590.86    0.6862108   0.21822471   0.25334626   0.38592726 
  466000    305.50191    306.94398    78.066652   -183018.14    818.86518   -182199.27     165995.3   0.68816243   0.21947498   0.25180722   0.38648154 
  468000    299.84629    301.60893    1.4896269    -183003.9    804.63235   -182199.27    165971.79   0.68419523   0.22078987   0.25001408   0.38499972 
  470000     300.4637    302.23831   -85.023637   -183005.58    806.31141   -182199.27    166363.84   0.68274118    0.2202702   0.24925371   0.38408836 
  472000    301.90942    302.99466   -84.867487   -183007.52    808.32921   -182199.19     166603.3   0.68312515   0.21989409   0.24991846   0.38431257 
  474000    298.01032    300.43606    -319.6016    -183000.6    801.50335   -182199.09    166354.75   0.68655289   0.21895009   0.24962146   0.38504148 
  476000    306.05134    305.20618   -40.862787   -183013.49    814.22908   -182199.26    165396.02   0.69021632   0.21905748   0.24906721   0.38611367 
  478000     302.2028    302.94974   -11.618203   -183007.49    808.20935   -182199.28    164919.41   0.68778008   0.21775293   0.24803857   0.38452386 
  480000    307.36995    306.41572   -89.955335    -183016.8     817.4559   -182199.34    164877.64   0.69542548   0.21477599   0.24815279   0.38611809 
  482000    304.49187    304.64921   -196.87379   -183012.01    812.74321   -182199.26    164417.49   0.69067636   0.21489051   0.24681443    0.3841271 
  484000    304.25367     302.3496    54.554698   -183005.76    806.60831   -182199.15     164637.8   0.68957349   0.21431913   0.24634235   0.38341165 
  486000    301.83173    303.07915   -31.684589   -183007.77    808.55458   -182199.22    165125.87   0.68784445   0.21343355   0.24588803   0.38238868 
  488000    301.45956    303.85807    16.799733   -183009.85    810.63259   -182199.22    165505.78   0.69223678   0.21352851   0.24537908   0.38371479 
  490000    302.59311    305.62252   -237.39792   -183014.45    815.33979   -182199.11    166219.53   0.69535999   0.21398989   0.24515556   0.38483514 
  492000    301.03068    303.04717    44.731127   -183007.49    808.46929   -182199.02    166915.06   0.69718269    0.2122732   0.24439316   0.38461635 
  494000    303.53935    302.62603   -347.18678   -183006.35    807.34578   -182199.01    166878.09   0.70036317   0.21159189   0.24760158   0.38651888 
  496000    300.87535    302.48771    10.268293   -183005.98    806.97675      -182199    166191.65    0.7059124   0.21336134   0.24968356   0.38965243 
  498000     303.0507     303.6815   -160.92252    -183009.3    810.16154   -182199.14    165551.18   0.70414768   0.21202605    0.2509446   0.38903944 
  500000    303.67063    304.76956   -243.83391   -183012.14    813.06428   -182199.07    165028.43   0.70383186    0.2144293   0.25022333   0.38949483 
  502000    303.45159    303.71583    9.3817963   -183009.25    810.25312   -182198.99    165291.83   0.70308313   0.21363482   0.24894192   0.38855329 
  504000    300.90153    303.13377    -429.8446   -183007.72     808.7003   -182199.02    166075.88   0.70021032   0.21215054   0.24792709   0.38676265 
  506000    303.31984    302.29635   -106.81579    -183005.3    806.46625   -182198.84     165916.2   0.69927518   0.21117053   0.24720992   0.38588521 
  508000    303.50093    303.73453   -228.63991   -183009.28    810.30302   -182198.97     166229.1   0.70468371   0.21104643   0.24635292   0.38736102 
  510000      302.037    301.64661   -162.72389   -183003.68    804.73286   -182198.95    166107.02   0.71355263   0.21139111   0.24603111   0.39032495 
  512000    301.07441     302.6869   -291.49846    -183006.3    807.50814   -182198.79    166659.59   0.73310269   0.21048339   0.24619919   0.39659509 
  514000    301.71725    301.38827   -264.23011   -183002.81    804.04368   -182198.76    166992.92    0.7317677   0.21161349   0.24809464   0.39715861 
  516000    303.50525    302.10654   -241.28573   -183004.89    805.95987   -182198.93    166157.97   0.73017297    0.2128343   0.24793853   0.39698193 
  518000    302.94935    302.45758   -65.008774   -183005.77    806.89637   -182198.87    165746.41   0.72850384   0.21350767   0.24737135   0.39646095 
  520000     304.7561    304.71186    -117.5192   -183011.85    812.91035   -182198.94    165768.01   0.73069896   0.21281365   0.24645686   0.39665649 
  522000    303.43007    302.18531   -172.54596   -183004.99    806.17002   -182198.82    165621.72   0.72923454    0.2117884   0.24754631   0.39618975 
  524000    305.35126    304.08417   -8.8458265   -183010.27    811.23579   -182199.03    165554.54   0.72956852   0.21112567   0.24764797   0.39611406 
  526000    302.34923    302.63601   -285.60503   -183006.27    807.37239    -182198.9    165761.72   0.72860822   0.21256935   0.24890727   0.39669495 
  528000    304.02382    304.77303   -66.961397   -183011.95    813.07352   -182198.87     165633.2   0.72660733    0.2126159   0.24776664   0.39566329 
  530000    304.39736    303.13891   -336.03208   -183007.53    808.71401   -182198.81    165500.31   0.72419474   0.21123286   0.25114469    0.3955241 
  532000    301.46438    302.72181   -74.274145    -183006.4    807.60128    -182198.8    165802.26   0.72388806    0.2158795   0.24993989   0.39656915 
  534000     304.5266    304.10982   -101.78972   -183010.08    811.30421   -182198.78    165499.28   0.72417256   0.21638089   0.24864438   0.39639928 
  536000    304.82923    303.99898   -113.26964   -183009.82    811.00853   -182198.81    164540.42   0.72008681   0.21834583   0.24836469   0.39559911 
  538000    303.85679    305.75223    60.547228    -183014.6    815.68583   -182198.91    164137.59   0.71672792    0.2170409    0.2472685   0.39367911 
  540000    303.48175     303.8492    38.446514   -183009.53    810.60892   -182198.93    164454.23   0.71369827   0.21623405    0.2477715   0.39256794 
  542000    305.73265    305.13181     94.11499   -183012.97    814.03068   -182198.94    165256.98   0.71358515   0.21572146   0.24901785   0.39277482 
  544000    305.76363    304.27783    82.129886    -183010.5    811.75243   -182198.74    165839.52   0.71984381   0.21730657   0.24780222    0.3949842 
  546000    304.78535    303.73082    -83.93073   -183008.92    810.29313   -182198.63     166020.3   0.72143808   0.21634907    0.2474373   0.39507482 
  548000    302.53389    303.45222   -183.18823   -183008.09    809.54987   -182198.54    165486.44   0.71868754   0.21529359   0.24705447   0.39367853 
  550000    302.47911    301.05699    20.093533   -183001.89    803.15988   -182198.73     165051.7   0.71685325   0.21641447   0.24853826   0.39393533 
  552000    301.79151      302.278   -280.66185   -183005.08    806.41729   -182198.66    164464.98   0.71521124   0.21579019   0.24889996   0.39330046 
  554000    300.95017    301.02889   -203.58583   -183001.76    803.08491   -182198.67    163938.16   0.72150345   0.21928417    0.2481564   0.39631467 
  556000    305.80401    305.08307   -45.733982   -183012.61    813.90065    -182198.7    163313.66   0.72185928   0.22692293   0.24726403   0.39868208 
  558000    307.15618    305.63586   -21.219036   -183013.94    815.37539   -182198.56    163012.77   0.72410936   0.22550395   0.24633143   0.39864825 
  560000    303.69601    304.72547    85.794332   -183011.71    812.94664   -182198.76    163750.49   0.72256178   0.22526652   0.24568697   0.39783842 
  562000    302.01162    302.63618   -53.789395   -183006.05    807.37283   -182198.68    164382.06   0.71998764   0.22401312   0.24640382   0.39680153 
  564000    302.65892     303.9393   -254.10736   -183009.62     810.8493   -182198.77    165222.34   0.71766808   0.22335852   0.24695624   0.39599428 
  566000    304.49225    303.98141   -253.03003   -183009.57    810.96166    -182198.6    166248.01    0.7157678   0.22329955    0.2469631   0.39534348 
  568000     302.2994    303.32351   -156.47095   -183007.75    809.20651   -182198.55    166965.05   0.71430375   0.22251727   0.25427588    0.3970323 
  570000    304.66214    304.27292   -222.82807   -183010.38    811.73934   -182198.64    167098.48   0.71057778    0.2225414   0.25575495   0.39629137 
  572000    301.95763    303.70401   -24.645918   -183008.93     810.2216   -182198.71    167485.99   0.70799311   0.22241607   0.25520752   0.39520557 
  574000    303.68272    304.09548    -217.5747   -183009.95    811.26596   -182198.68    167203.31   0.71075277   0.22174127   0.25529816   0.39593073 
  576000    301.46669    303.00812    150.62918   -183006.96    808.36511    -182198.6    166976.72   0.71576954   0.22184215   0.25452001   0.39737724 
  578000    305.09957    305.53943   -149.97547   -183013.68    815.11814   -182198.56    166559.22   0.72649902   0.22205747   0.25574335   0.40143328 
  580000    304.09907    305.00315   -368.04893   -183012.39    813.68745   -182198.71    165587.59   0.72700223   0.22081863   0.25449981   0.40077356 
  582000    299.96797    302.91209   -42.579823   -183006.63     808.1089   -182198.53    164379.42   0.73046948   0.22010301   0.25445315   0.40167521 
  584000     301.4423    303.55416   -210.39913   -183008.48    809.82183   -182198.66    163416.13   0.73468548   0.22010134   0.25919245   0.40465976 
  586000    301.46373    304.72142   -391.91609   -183011.59    812.93585   -182198.66    162438.72   0.73381366    0.2201662   0.25925123   0.40441036 
  588000    300.50866    303.49424   -220.84158   -183008.26    809.66197    -182198.6    162596.85   0.73158792    0.2195585   0.25995813   0.40370152 
  590000    303.75315     304.5477   -122.15259      -183011     812.4724   -182198.53    163506.92   0.73159684   0.21969407   0.26065846   0.40398313 
  592000    301.87546    304.54992   -80.002312   -183010.98    812.47831    -182198.5    163934.66   0.73319973   0.22094832   0.25972503   0.40462436 
  594000    301.87687    301.54868   -68.887605   -183003.02    804.47161   -182198.55    163999.51   0.73188738   0.22027899   0.25868759   0.40361799 
  596000    303.70293    304.77751   -291.62715   -183011.69    813.08549   -182198.61    164764.32   0.73923703   0.21958224   0.26011205   0.40631044 
  598000    301.54832    303.39931   -137.69695      -183008    809.40873   -182198.59    165818.77   0.73696941   0.21888572   0.25817815   0.40467776 
  600000    304.39119     305.3134    -131.0456   -183013.12    814.51513    -182198.6    166844.95   0.73519056    0.2179938   0.25740969   0.40353135 
  602000    301.51227    303.70901   -250.55676   -183008.82    810.23493   -182198.58    167376.12   0.73391465   0.21775654   0.25958144   0.40375088 
  604000    300.98613    302.54605   -138.14085   -183005.78    807.13239   -182198.65    166919.06   0.73176095   0.22317073   0.25743881    0.4041235 
  606000    302.37317    303.58294   -43.084157   -183008.59    809.89861   -182198.69    165700.03   0.72947029   0.22102161    0.2573431   0.40261167 
  608000    300.51542    304.14441    70.130955   -183010.03    811.39649   -182198.63    164651.45   0.72993563   0.22610728    0.2572296   0.40442417 
  610000    304.18779    305.30037   -255.44326   -183013.14    814.48036   -182198.66    163904.61   0.72637103   0.22383794   0.25617435   0.40212778 
  612000    300.22941    302.10031   -147.32822   -183004.63    805.94324   -182198.69    164352.99   0.72402598   0.22313948   0.25596164   0.40104237 
  614000     303.5031    302.65115   -345.03457   -183006.05    807.41278   -182198.64    164318.62    0.7216073   0.22276706   0.25559143    0.3999886 
  616000     306.1427    305.52351    -126.2591   -183013.84    815.07565   -182198.76    164509.81   0.71946402   0.22191981   0.25457212   0.39865198 
  618000    304.07487    303.11116   -402.14177   -183007.27       808.64   -182198.63    164667.85   0.71921293    0.2220047   0.25385404   0.39835722 
  620000    304.63927    305.16653    -83.59454   -183012.72     814.1233   -182198.59    165240.64   0.71683823   0.22141526   0.25507406   0.39777585 
  622000    301.21491     303.1569   -226.05833   -183007.28    808.76203   -182198.52    165651.93   0.71833797   0.22045196   0.25720525   0.39866506 
  624000    302.18607    304.15063   -29.045307   -183009.97     811.4131   -182198.56    165679.85   0.72301851   0.22160266    0.2612841   0.40196842 
  626000    306.30992    306.80587    46.457649   -183017.16    818.49674   -182198.67    165166.27   0.72183777   0.22047368   0.26319381   0.40183508 
  628000    301.39008    302.54242   -58.688253   -183005.63    807.12271   -182198.51    164951.96   0.72616718   0.21965741   0.26337412   0.40306623 
  630000    302.36694    303.72581   -100.67747   -183008.76    810.27974   -182198.48    164707.34   0.72524145   0.22398326   0.26265235   0.40395902 
  632000    304.31482    305.82944   -79.928897   -183014.44    815.89181   -182198.55     164239.8   0.72316085   0.22213274   0.26206306   0.40245222 
  634000    304.13066    304.24403   -351.96077    -183010.2    811.66228   -182198.54    164134.82   0.72174978   0.22192329   0.26138469   0.40168592 
  636000    303.62099    303.26532   -39.241701   -183007.59    809.05125   -182198.53     164438.5   0.71964159   0.22206247   0.25953346   0.40041251 
  638000    302.94499    302.35124   -146.40363   -183005.25    806.61268   -182198.63    164477.59   0.72055591   0.22087276   0.25855343   0.39999403 
  640000    306.10062    303.52414   -119.89041   -183008.12    809.74173   -182198.38    165053.83    0.7237594   0.22045427   0.25875068   0.40098812 
  642000    304.93306    303.84742   -179.14148   -183008.96    810.60419   -182198.36    165931.56   0.72577519    0.2195894   0.25744291   0.40093583 
  644000    303.12206    303.90891    8.6571149   -183009.21    810.76823   -182198.45    166296.38   0.72503281   0.21917509   0.25629368   0.40016719 
  646000     305.7377    305.55171   -38.077352   -183013.66     815.1509   -182198.51    166078.16   0.72228534   0.21873153   0.25590125   0.39897271 
  648000    302.57859    303.65187   -164.40934    -183008.6     810.0825   -182198.52    165631.36   0.72170508    0.2176691   0.25603803   0.39847074 
  650000    305.31098    304.04317   -207.46924   -183009.66    811.12641   -182198.53    164499.44   0.71896226   0.21664866   0.25524368   0.39695153 
  652000    304.38937    304.58162    46.428689   -183011.06    812.56288    -182198.5    163662.29   0.71641799    0.2158266   0.25442662   0.39555707 
  654000    302.48493    303.40827   -27.285162   -183007.84    809.43264   -182198.41    163346.06   0.71451684   0.21613243   0.25385221   0.39483383 
  656000    304.70845    302.52534   -76.905029   -183005.59    807.07715   -182198.51    164417.88   0.71251352   0.21699103    0.2536514   0.39438532 
  658000    305.10638    305.59708    120.53759   -183013.85    815.27194   -182198.58    165104.91   0.71040056   0.21685947   0.25254372   0.39326791 
  660000    301.28972    301.60665   -287.12833   -183003.17    804.62626   -182198.54    164978.85   0.70863241   0.21624171    0.2524263   0.39243347 
  662000    306.37518    306.22136    89.466703    -183015.5     816.9374   -182198.56     163885.7    0.7064216    0.2156525   0.25203895   0.39137102 
  664000    302.68018    303.03486    31.417835   -183006.86    808.43644   -182198.43    162729.43   0.70545807   0.21465798   0.25136151   0.39049252 
  666000    304.85125    303.45703   -258.62349   -183008.04     809.5627   -182198.48    162254.67   0.70506893   0.21482664   0.25139886   0.39043148 
  668000    306.57847    304.73954   -39.491049   -183011.43    812.98418   -182198.45    163086.07   0.70322152   0.21674702   0.25057878   0.39018244 
  670000    303.76351    303.20683   -85.246578   -183007.23    808.89522   -182198.34    164620.04   0.70174045   0.21639079   0.25002749   0.38938624 
  672000    303.52799     303.9105   -236.75053   -183008.98    810.77248   -182198.21    165784.31   0.70092325   0.21487868   0.24926081   0.38835424 
  674000     301.2952    301.72585   -267.52204   -183003.11    804.94426   -182198.17     166505.2   0.69994175   0.21451937   0.25040165   0.38828759 
  676000    303.07068    303.45951   -118.75771   -183007.89    809.56932   -182198.32    166077.05   0.70380598   0.21373252   0.25024578   0.38926143 
  678000    303.38692    303.63706   -63.726821   -183008.35    810.04299   -182198.31    165433.98   0.70295626   0.21319325   0.24981064   0.38865338 
  680000    302.52462    302.20706     91.22841    -183004.6    806.22804   -182198.37    165161.88   0.70085813   0.21261377   0.24921812   0.38756334 
  682000    299.95505    302.53979   -83.670188    -183005.6     807.1157   -182198.48    164884.28   0.69950734   0.21323758   0.24964008   0.38746167 
  684000    302.51642    302.82912   -268.97749   -183006.31    807.88756   -182198.42    164813.14   0.69763247   0.21324815   0.24858085   0.38648715 
  686000    302.75275    304.90552   -18.739936   -183011.74    813.42699   -182198.31    164803.57   0.69554207   0.21337549   0.24850307   0.38580687 
  688000    303.16157    304.63217   -255.65671   -183010.97    812.69774   -182198.27    165792.73   0.69440222   0.21227138   0.24863285   0.38510215 
  690000      302.736    302.95123   -200.82238    -183006.4    808.21334   -182198.19    166051.62   0.69579138   0.21391085   0.24779668   0.38583297 
  692000    302.43468    302.52086   -12.268668   -183005.29    807.06518   -182198.22    166276.71   0.69361109   0.21383367   0.24785464    0.3850998 
  694000    300.00588    301.72373   -267.96554   -183003.12    804.93861   -182198.18    166377.65   0.69812813   0.21352598   0.24834579   0.38666663 
  696000    301.02593    301.97416   -84.254379    -183003.8    805.60672   -182198.19    165738.16   0.69603205   0.21341171   0.24884059   0.38609478 
  698000     303.5921    304.64423   -227.84124   -183011.06    812.72993   -182198.33     164861.4   0.69829832   0.21280891   0.24922271   0.38677665 
  700000    301.79211    302.82599   -147.49802   -183006.15    807.87921   -182198.27    164711.21   0.70142784    0.2120919   0.25115903   0.38822625 
  702000     302.3712    302.99051    -54.51809   -183006.44    808.31812   -182198.12    164928.06   0.70365053   0.21403023   0.24963403   0.38910493 
  704000    302.11667    303.91336    -221.0389   -183008.99     810.7801   -182198.21    165120.88   0.70672853   0.21310761   0.24936508   0.38973374 
  706000     303.7259    304.06064   -85.974238   -183009.29      811.173   -182198.11    165655.28   0.70401585   0.21284621   0.25008147   0.38898118 
  708000    302.19339    302.45471   -164.80156   -183004.88    806.88873   -182197.99    166339.36   0.70260547   0.21190996   0.24933207   0.38794917 
  710000     302.8246    303.60886    24.083116   -183007.92    809.96776   -182197.96     167161.4   0.70089783   0.21322477    0.2490225   0.38771503 
  712000    302.53972    304.79037     50.32897   -183011.29     813.1198   -182198.17    166631.48   0.69886241   0.21484548   0.25092582   0.38821124 
  714000    301.94279    303.16912   -69.050626   -183007.04    808.79461   -182198.25    165328.76    0.6969261    0.2154854   0.25143284   0.38794811 
  716000    302.78692    304.23527   -76.415694   -183009.76    811.63889   -182198.13    163789.81   0.69485103   0.21483535   0.25096376   0.38688338 
  718000    303.46713    303.33125   -185.73331   -183007.22    809.22715   -182197.99    163909.58   0.69290877   0.21375547   0.25031791   0.38566072 
  720000    304.77179    303.12777   -317.70481   -183006.87    808.68431   -182198.18     164217.9   0.69567932   0.21664318   0.24988972   0.38740407 
  722000    302.07598    302.30054   -36.663082    -183004.6    806.47742   -182198.12    164550.25   0.70043246   0.21613816   0.24941395   0.38866153 
  724000    304.45667    303.93212   -26.988956   -183009.11    810.83014   -182198.28    165185.09   0.70145595   0.21553064   0.24833252    0.3884397 
  726000    303.33074    304.63059   -15.121301   -183010.82    812.69352   -182198.13    165804.33   0.70061365   0.21434767   0.24876199   0.38790777 
  728000    301.46017    303.57627   -170.19418   -183008.04    809.88081   -182198.16    166697.75   0.70577253   0.21417144    0.2486314   0.38952512 
  730000    300.59849     302.2423   -224.67369   -183004.34    806.32205   -182198.01    167416.17   0.70985947    0.2132834   0.25104993    0.3913976 
  732000    301.94209    302.98066    -193.2269   -183006.34    808.29184   -182198.05    167410.36    0.7082556   0.21253864   0.25183946    0.3908779 
  734000     302.1002    305.25581   -190.65106   -183012.49     814.3615   -182198.13    166898.06   0.70797826   0.21201954   0.25074053   0.39024611 
  736000    302.57455    304.10567   -129.90202   -183009.48    811.29316   -182198.18    165593.89   0.70901914   0.21114805   0.25098496   0.39038405 
  738000    302.58559    304.06494    57.565656   -183009.39     811.1845    -182198.2     164619.6   0.70757552   0.21298624   0.25153709   0.39069962 
  740000    300.69771    302.17658   -349.99642   -183004.19    806.14672   -182198.05    163935.37   0.70567682   0.21285075   0.25093855   0.38982204 
  742000    302.73448    305.57321   -64.225064   -183013.22    815.20825   -182198.01    163169.05   0.70448906   0.21238168   0.25060764   0.38915946 
  744000    303.36016    303.41562   -295.19861   -183007.52    809.45224   -182198.07    163679.76   0.70536288   0.21543898   0.25042423    0.3904087 
  746000    299.93929    305.23066    3.8158763   -183012.39     814.2944   -182198.09    164135.99   0.70474062   0.21541563   0.25020001   0.39011875 
  748000    300.52541    303.81659   -91.297135   -183008.61    810.52195   -182198.09    164103.97   0.70360807   0.21470194   0.24943794   0.38924932 
  750000    303.45056     304.2456    -228.3357   -183009.92    811.66646   -182198.25    163502.06   0.70217956   0.21353091   0.24855458   0.38808835 
  752000    302.68098    305.48957   -110.97086   -183013.16    814.98511   -182198.18    163151.98   0.69960085   0.21298637    0.2483804   0.38698921 
  754000    301.25568    303.69649    212.25566   -183008.39    810.20153   -182198.18    163474.94   0.69803557   0.21233456   0.24770385   0.38602466 
  756000    299.75839    303.97585   -173.58199   -183009.19    810.94682   -182198.24    163880.55   0.69675317   0.21212898   0.24733982   0.38540732 
  758000    302.17068     305.4243   -2.1024952      -183013    814.81098   -182198.18     164649.4   0.69439752   0.21255427   0.24678916   0.38458032 
  760000    299.13192    304.00435   -148.57868   -183009.25    811.02285   -182198.23    164690.52   0.69264353   0.21238186   0.24591489   0.38364676 
  762000    300.37286    304.36616   -75.190607   -183010.29    811.98809    -182198.3    164520.87   0.69078884   0.21167814   0.24613852    0.3828685 
  764000    302.83681    307.36902    -107.3374   -183018.24    819.99912   -182198.24    164367.89   0.68969663   0.21150239    0.2460774   0.38242547 
  766000    301.44967    303.43859   -224.76147   -183007.84    809.51352   -182198.33    164090.04   0.69088679   0.21163884   0.24684716   0.38312426 
  768000    299.73426    304.57217   -70.645445   -183010.74    812.53769   -182198.21    163547.75   0.68833798   0.21088773   0.24584287   0.38168953 
  770000    304.24188    303.77444   -165.07581   -183008.59     810.4095   -182198.18    163171.89   0.68927021   0.21024271   0.24542303   0.38164531 
  772000    304.86874     304.3835   -197.94909   -183010.05    812.03435   -182198.01    163492.61   0.69037023   0.20899799   0.24487264   0.38141362 
  774000    304.61631    304.13844   -107.77286   -183009.47    811.38057   -182198.09     163742.8   0.69707796    0.2088334    0.2450449   0.38365208 
  776000    306.08454    305.45225    119.82099   -183012.87    814.88556   -182197.98    163671.92   0.70454363   0.20829626   0.24440357   0.38574782 
  778000    304.38944    304.62411   -72.133019    -183010.7    812.67625   -182198.02    164075.44   0.70736494   0.20798351   0.24474762   0.38669869 
  780000    301.59604    302.26141   -115.32703   -183004.37    806.37302   -182197.99    164296.95   0.70692267    0.2071028   0.24490657   0.38631068 
  782000     306.6081    305.75936   -213.12078   -183013.84    815.70486   -182198.13    165140.16   0.70846503   0.20703234    0.2443559   0.38661776 
  784000    304.35774    304.58516   -69.826283   -183010.51    812.57232   -182197.93    166258.19   0.70982617   0.20614557   0.24487025   0.38694733 
  786000     303.5162     303.4858   -148.69307   -183007.72    809.63945   -182198.09    166281.46   0.70960923    0.2057709   0.24382625   0.38640213 
  788000    304.36212    304.26891   -73.723182   -183009.76    811.72865   -182198.03    165922.69   0.71296675   0.20521737    0.2432114   0.38713184 
  790000    304.77548    305.30503   -202.33345   -183012.54    814.49281   -182198.04    165253.06   0.71665542   0.20467015   0.24320074   0.38817544 
  792000    306.20097    306.19783   -202.50279   -183015.03    816.87461   -182198.16    164709.47   0.71810315   0.20623906   0.24390891   0.38941704 
  794000     301.7053    303.64355   -105.81102   -183008.19    810.06029   -182198.13    164673.19   0.71795331    0.2055182   0.24550787    0.3896598 
  796000    308.17544    306.42795     5.723339   -183015.61    817.48854   -182198.13    164407.67   0.71916682   0.20671194   0.24480287   0.39022721 
  798000    299.19519    301.71123   -52.467689   -183002.96    804.90526   -182198.06    164889.17   0.71653267   0.20753878   0.24401489   0.38936211 
  800000    302.52839    303.94164   -85.680513   -183008.92    810.85556   -182198.07    165035.22   0.71825376   0.20740702   0.24385568   0.38983882 
  802000    300.15613    302.47104    35.647872   -183004.89    806.93228   -182197.95    165184.85   0.72150455    0.2080354   0.24369751   0.39107915 
  804000    306.94791    305.93176   -180.47309   -183014.27     816.1648    -182198.1    165536.35   0.72736475   0.20766792   0.24577189   0.39360152 
  806000    301.26298    303.26755   -10.658647   -183007.06     809.0572      -182198    165067.93   0.73038824   0.20681509   0.24507642   0.39409325 
  808000    304.97507    304.97518   -34.885573   -183011.69    813.61281   -182198.08    164331.37   0.72828798   0.20677545   0.24456053   0.39320799 
  810000    306.15559    303.65603   -47.178879   -183008.17     810.0936   -182198.07    164864.75   0.73012392   0.20817101   0.24378213   0.39402569 
  812000    305.24215    304.12108   -107.42389    -183009.3    811.33425   -182197.96    165901.07   0.73222945   0.20758719   0.24362232   0.39447965 
  814000    303.15032    302.81604   -227.06967   -183005.87    807.85266   -182198.02    166682.78   0.73194169   0.20757145    0.2439723   0.39449515 
  816000    303.78189    305.86809   -179.93133   -183013.95    815.99493   -182197.95    166488.66   0.73248004   0.20840996   0.24398471   0.39495824 
  818000    303.46795    303.79356   -266.67702   -183008.37     810.4605   -182197.91    166331.48   0.73326484   0.20810308   0.24354516   0.39497102 
  820000    304.27394    304.24745   -166.96611   -183009.63     811.6714   -182197.96    166768.66   0.73254286   0.20869497   0.24305919   0.39476567 
  822000     303.8311    304.44981   -131.76087   -183010.15    812.21125   -182197.94     166887.6   0.73139965   0.20785767   0.24352044   0.39425925 
  824000    301.43989    302.02155    128.65681   -183003.71    805.73312   -182197.98    166265.71   0.73101177   0.20767804   0.24308666   0.39392549 
  826000    300.37254    302.77713    10.666278   -183005.57    807.74887   -182197.82    164939.87   0.73064781   0.20743485   0.24207516   0.39338594 
  828000    305.21978    305.89719    74.366382   -183013.99    816.07255   -182197.92    163500.89   0.73133103   0.20688504   0.24199984    0.3934053 
  830000    306.16624    305.66833    35.069206   -183013.24    815.46202   -182197.78    162554.44   0.72904914   0.20637088   0.24161096   0.39234366 
  832000    304.01905    305.65964   -19.755171   -183013.21    815.43884   -182197.77    162827.86   0.73230572   0.20592895   0.24222001   0.39348489 
  834000     306.0535    305.01233   -188.45607   -183011.64    813.71195   -182197.93    163532.65   0.73413708   0.20565241   0.24132284   0.39370411 
  836000    304.14592    304.53993    -11.72075   -183010.31    812.45167   -182197.86    164158.44    0.7365272   0.20576392   0.24117137    0.3944875 
  838000    303.77705    304.62522   -93.715525   -183010.48    812.67921    -182197.8     164895.1   0.73797627   0.20500406   0.24047601   0.39448545 
  840000     306.9856    305.74055   -160.17278   -183013.52    815.65468   -182197.86    165170.31    0.7368943   0.20490634   0.23984057    0.3938804 
  842000    305.42171    304.91208   -5.3465239   -183011.16     813.4445   -182197.71    165767.96   0.73594481   0.20461096   0.24018769   0.39358115 
  844000    304.42189    305.22574   -237.62465   -183011.94    814.28127   -182197.66    166293.26    0.7385964   0.20656397   0.23959394   0.39491811 
  846000     301.1515    302.09139   -215.23564   -183003.62    805.91946    -182197.7    166130.99   0.75372738   0.20585853   0.23911301   0.39956631 
  848000    305.41763    304.64195   -14.686072   -183010.47    812.72383   -182197.74    166251.32   0.75504493   0.20522809   0.23944079    0.3999046 
  850000    304.58221    304.68272    31.487101   -183010.49    812.83261   -182197.66    166789.85   0.75519994   0.20551204   0.23937509   0.40002902 
  852000     306.5419     304.8431   -96.828466   -183010.93    813.26047   -182197.67    166740.51   0.75426723   0.20699996   0.23907187   0.40011302 
  854000    302.61124    303.64904    73.135055   -183007.73    810.07495   -182197.65    166676.75   0.75484454   0.20705098   0.23827921   0.40005824 
  856000    302.99778    303.32461   -31.104618   -183006.74    809.20943   -182197.53    166718.58   0.75491545   0.20749018   0.23798016    0.4001286 
  858000    300.79012    301.82285   -59.111987   -183002.87    805.20303   -182197.67    166838.47   0.76071449   0.20729498   0.23768192   0.40189713 
  860000    302.22458    304.18293   -204.82804   -183009.11    811.49926   -182197.61    167062.56   0.75918988   0.20866859   0.23782705   0.40189517 
  862000    300.22726    303.04617    30.998423   -183006.12    808.46661   -182197.65    166686.95   0.75737663   0.20816437   0.23883753   0.40145951 
  864000    302.80135    306.24908    98.564951   -183014.77    817.01134   -182197.75    165866.68   0.75663227    0.2080693   0.24027542     0.401659 
  866000    303.14324    304.67115   -205.92808   -183010.48    812.80174   -182197.67    165378.75   0.75613119   0.20764569   0.24017679   0.40131789 
  868000    300.10703    303.60247    232.33422    -183007.6    809.95072   -182197.65    164456.22    0.7553776   0.20766455   0.23954174    0.4008613 
  870000    307.48773    305.77455   -9.4395217    -183013.4     815.7454   -182197.66    163910.13   0.75570592   0.20731606     0.239472   0.40083133 
  872000    304.13446    304.96641   -236.83471   -183011.08    813.58944   -182197.49    164087.18   0.75347115   0.20755689    0.2390597   0.40002925 
  874000    304.83288    305.81189   -172.47247   -183013.59    815.84501   -182197.74    164397.19   0.75182482   0.20734201   0.23834507   0.39917063 
  876000    303.54699    305.18906   -66.634583   -183011.59     814.1834    -182197.4    164859.19   0.74997175   0.20832213   0.23836812   0.39888733 
  878000    299.26601    302.79475   -161.06134   -183005.39    807.79587   -182197.59    165541.75   0.74937542   0.20684953   0.23756276   0.39792924 
  880000    298.49609    302.75764   -66.153154    -183005.3    807.69687    -182197.6    165645.32   0.75393395   0.20679638   0.23713955   0.39928996 
  882000    299.28017    304.98189    61.536793   -183011.13    813.63072   -182197.49    165274.85   0.75771082   0.20642605   0.23707858   0.40040515 
  884000    301.42733    304.57513    173.41308   -183010.07    812.54556   -182197.53    164167.14   0.75657392   0.20609957   0.23694268   0.39987206 
  886000    303.65647    305.34097   -153.24506   -183011.99    814.58867    -182197.4    163611.95   0.75498972   0.20536969   0.23542997   0.39859646 
  888000      299.299    302.59538    155.50369   -183004.72      807.264   -182197.45    163286.85   0.75340541   0.20505656   0.23472927   0.39773041 
  890000     304.2341    304.36963   -347.66151   -183009.57    811.99735   -182197.57    163212.99    0.7522883   0.20458263   0.23451271   0.39712788 
  892000    304.77871     305.2687   -123.41835   -183011.97    814.39587   -182197.57    164077.26   0.76155206   0.20452161   0.23485921   0.40031096 
  894000    304.88263    305.97367   -31.153764   -183013.83     816.2766   -182197.55    164741.94   0.76423674   0.20468259   0.23744745   0.40212226 
  896000    302.63934    303.19387    -161.5945   -183006.34    808.86065   -182197.48     164430.2   0.76578168    0.2041864   0.23742501   0.40246436 
  898000    304.15919    305.77652   -190.64534   -183013.22    815.75065   -182197.47    164207.82    0.7665983   0.20633315   0.23695732   0.40329625 
  900000    302.07959    303.37699   -286.76305   -183006.76    809.34917   -182197.41    163488.72   0.76854255   0.20501373   0.23639325   0.40331651 
  902000    303.49032    304.49212    10.705212   -183009.68    812.32411   -182197.35    162897.66   0.77028762   0.20432556   0.23613035   0.40358117 
  904000    302.65273    304.46192   -232.43327   -183009.52    812.24356   -182197.28    162470.89   0.76778875   0.20450954   0.23616717   0.40282182 
  906000    300.57784    304.35073    43.304842    -183009.4    811.94693   -182197.46    162926.34    0.7661637   0.20521536   0.23613276   0.40250394 
  908000     305.8928    306.55919    40.917938   -183015.21    817.83866   -182197.37    163128.27   0.76535263   0.20566411   0.23664252   0.40255308 
  910000    301.31182    302.69096    -20.11997   -183004.88    807.51897   -182197.37    163833.55   0.76645045   0.20606057   0.23542316   0.40264473 
  912000    301.45295    305.22818   -104.48571   -183011.55    814.28779   -182197.26    164387.15   0.76643099   0.20553035   0.23496186   0.40230773 
  914000    303.95778    304.08807   -135.55932   -183008.56    811.24621   -182197.32     164607.7   0.77058705   0.20482098   0.23461654   0.40334152 
[...]
 4790000    304.46197     307.4694   -39.188899   -183001.74     820.2669   -182181.48    166216.96   0.80012668   0.21010396   0.22633147   0.41218737 
 4792000    304.62422    308.23822    82.818925   -183003.76    822.31795   -182181.44    165814.19   0.79995239   0.20995033   0.22645879    0.4121205 
 4794000    305.80621    306.71488    84.489918   -182999.68      818.254   -182181.43    165735.99   0.79949181   0.20982893   0.22635334   0.41189136 
 4796000    306.50399    309.03279   -204.60732   -183005.89    824.43771   -182181.45    165685.97     0.799127   0.21008967   0.22630495   0.41184054 
 4798000    305.83298    307.78865     74.25251   -183002.54    821.11861   -182181.42    165963.99   0.79922563   0.20995948   0.22616466   0.41178326 
 4800000    303.88068      307.314   -178.32347   -183001.31    819.85233   -182181.46     166840.6   0.79877469   0.20982368   0.22613691   0.41157843 
 4802000    303.69098    305.66575   -51.030757   -182996.79    815.45512   -182181.34    167537.54   0.79907315   0.20980068    0.2264244   0.41176608 
 4804000    306.80427    308.74257    85.692248   -183005.05    823.66348   -182181.38    167430.64   0.79900641   0.20969972   0.22677853   0.41182822 
 4806000    302.92617    306.27511   -36.354641   -182998.35    817.08079   -182181.27    166831.53    0.7988577   0.20959581   0.22666163   0.41170505 
 4808000    306.21874    307.48611   -166.53924   -183001.67    820.31148   -182181.36    166318.59   0.79989027   0.20956111   0.22654672   0.41199937 
 4810000     306.8436    308.36617    67.121749   -183004.03     822.6593   -182181.37    166292.01   0.79994092   0.20942432    0.2265328   0.41196601 
 4812000    306.22367    309.42819   -199.31448   -183006.95    825.49256   -182181.46    166398.61   0.80023437   0.20932955   0.22653187   0.41203193 
 4814000    304.36529    305.77259    -23.82688    -182997.1    815.74015   -182181.36     167155.2   0.80011687   0.20922416   0.22648336   0.41194146 
 4816000    305.21228    305.86811    -82.66173   -182997.39    815.99499   -182181.39    167399.07   0.79976048   0.20934324   0.22626229   0.41178867 
 4818000     306.1479    307.02349   -84.237243   -183000.65    819.07731   -182181.57    166785.71   0.79971113   0.20945737   0.22621234   0.41179361 
 4820000    303.89443    306.04366    -334.8225   -182997.77    816.46332   -182181.31    166511.16    0.8003712   0.20941129   0.22606576   0.41194942 
 4822000    307.00678    308.17437   -140.19278   -183003.66    822.14763   -182181.51    165992.83   0.80013857   0.20944155    0.2261414   0.41190717 
 4824000    303.77761    308.26609    78.314039   -183003.79    822.39233    -182181.4    165683.64   0.80019555    0.2094818   0.22595245    0.4118766 
 4826000    307.05421    306.58821   -66.282537    -182999.2    817.91607   -182181.28    165790.01   0.79996603   0.20941413   0.22595272   0.41177763 
 4828000     301.9383    305.75302   -122.60647   -182997.04    815.68795   -182181.35    166449.09   0.79965883   0.20954744   0.22582093   0.41167573 
 4830000    306.06981    308.25622   -176.12831   -183003.75    822.36599   -182181.39    166666.02   0.79942122   0.20940935   0.22593133    0.4115873 
 4832000    305.05564     306.4424   -190.09221   -182998.84    817.52709   -182181.32    166903.36   0.79950491   0.20931832   0.22583276     0.411552 
 4834000     304.9881    308.11403   -180.03485   -183003.45    821.98664   -182181.47    166629.37    0.7992781   0.20932365    0.2258631   0.41148828 
 4836000    303.69849    306.33875    196.78175   -182998.57    817.25056   -182181.32    165791.36   0.79909545   0.20934729   0.22560745   0.41135006 
 4838000    306.27711    306.81229   -14.449338   -182999.81    818.51386    -182181.3    165769.06   0.79897357   0.20925057   0.22594945    0.4113912 
 4840000    308.55341    309.75165   -181.68393   -183007.83     826.3555   -182181.47    165682.09   0.79862401   0.20943282   0.22591612   0.41132431 
 4842000    305.33751    307.91703   -178.53219   -183002.83    821.46109   -182181.37     165628.1   0.79834245   0.20934396   0.22597035   0.41121892 
 4844000    306.31729    307.06003   -64.334871   -183000.34    819.17479   -182181.17     165675.2   0.79804786   0.20928491   0.22584846   0.41106041 
 4846000    308.37533    308.82612   -60.515729   -183005.22    823.88635   -182181.34    166046.25   0.79784628   0.20906756   0.22647003   0.41112796 
 4848000    307.65822    307.37711   -180.93267   -183001.11    820.02068   -182181.09    166658.19   0.79775502   0.20903644   0.22651549   0.41110232 
 4850000    306.28375    308.08214   -250.52078   -183003.21    821.90158   -182181.31    167527.69    0.7975234   0.20899851   0.22643307   0.41098499 
 4852000    307.89993    307.81399    121.31778   -183002.28     821.1862    -182181.1    168329.28   0.79726558   0.20892361   0.22646462    0.4108846 
 4854000    307.32562    307.58143   -160.85276   -183001.71    820.56578   -182181.15    168940.14   0.79725315   0.20886065   0.22641811   0.41084397 
 4856000    304.23741    305.87929   -22.047427   -182997.09    816.02482   -182181.07    168550.21    0.7969402   0.20871091   0.22664858   0.41076656 
 4858000    305.81511    307.22567   -275.02178   -183000.83    819.61668   -182181.21    167409.33   0.79661184   0.20870559   0.22663882   0.41065208 
 4860000    309.49143     310.3856   -194.92021   -183009.28    828.04675   -182181.23    166213.09    0.7962759    0.2086706   0.22695023   0.41063224 
 4862000    308.42773    308.72618   -79.308139   -183004.75    823.61975   -182181.13    166051.96    0.7963076   0.20861849   0.22707216   0.41066608 
 4864000    306.12229    305.24949   -24.945539   -182995.62    814.34463   -182181.27    166169.98   0.79681988   0.20856586   0.22700282   0.41079619 
 4866000    303.56249    304.61605   -137.03962   -182993.91    812.65473   -182181.25    165749.89    0.7977183   0.20850287   0.22713214   0.41111777 
 4868000    308.12056    308.27497   -42.500868   -183003.58      822.416   -182181.16    165143.42   0.79842575     0.208404   0.22727371   0.41136782 
 4870000    307.04719    306.39153   -76.841773   -182998.38    817.39136   -182180.99    165562.09   0.79825209    0.2085705   0.22709732   0.41130664 
 4872000    303.42276    306.61907    36.569486   -182998.95     817.9984   -182180.95    166220.23   0.79787364   0.20839026   0.22700769   0.41109053 
 4874000    306.46656    306.73776   -157.06624   -182999.39    818.31505   -182181.07    166812.44   0.79762682   0.20844093   0.22691969   0.41099582 
 4876000    305.32955    307.81068    43.689434   -183002.08    821.17736    -182180.9    167140.44   0.79821536   0.20855882   0.22686386   0.41121268 
 4878000    307.92971    307.87405   -249.28429   -183002.42    821.34642   -182181.07    166434.92   0.79959736   0.20837577   0.22676771   0.41158028 
 4880000    306.51272    307.01052    122.76377   -183000.21     819.0427   -182181.17    166334.69   0.80164266   0.20822464   0.22687566   0.41224765 
 4882000    307.34193     306.6698   -141.35231    -182999.1    818.13373   -182180.97    166631.87   0.80206291   0.20821412    0.2268404   0.41237248 
 4884000    308.62499    307.31497    66.489444   -183000.72    819.85491   -182180.86    166699.55   0.80162445   0.20817156   0.22678503   0.41219368 
 4886000    309.50707    309.00374   -161.52816    -183005.4    824.36022   -182181.04    167341.26   0.80158496   0.20809333   0.22676529   0.41214786 
 4888000    307.26007    307.98144    -58.80366    -183002.6    821.63293   -182180.96    167604.45   0.80146752   0.20807353   0.22676882   0.41210329 
 4890000    306.97775    308.09081   -247.19301   -183002.75    821.92469   -182180.82    166946.41   0.80131232   0.20813912   0.22667632   0.41204259 
 4892000    305.80814    306.54297    142.75831   -182998.66    817.79537   -182180.87     166067.6   0.80129418   0.20812709   0.22697952    0.4121336 
 4894000    306.43264    308.12323   -70.438581   -183002.96     822.0112   -182180.95     165225.8   0.80182199   0.20803183   0.22713515   0.41232966 
 4896000    309.30237    309.31102   -65.961747   -183005.94    825.17999   -182180.76    164161.62   0.80195297   0.20800193   0.22721444   0.41238978 
 4898000    309.19181    309.79374   -279.72698   -183007.57    826.46779   -182181.11    163153.66   0.80256126   0.20803029   0.22762006    0.4127372 
 4900000    309.53539    309.47465   -23.858516   -183006.55     825.6165   -182180.94    162705.83   0.80410907   0.20783602   0.22752746   0.41315752 
 4902000    304.14429    307.95291    37.884413   -183002.46     821.5568   -182180.91    163475.03   0.80543094   0.20785953   0.22758236   0.41362428 
 4904000    306.14911    308.16766    8.2917971   -183002.96    822.12973   -182180.83    164552.47      0.80578   0.20785028   0.22818396   0.41393808 
 4906000    308.46226    307.79613   -198.67088   -183001.91    821.13854   -182180.77    165368.56   0.80589499    0.2077595   0.22799375   0.41388275 
 4908000    302.37426    305.95522    6.1437663   -182997.09    816.22739   -182180.86    165798.56   0.80590677   0.20773371    0.2279021   0.41384753 
 4910000    305.91117    309.24112    317.25099   -183005.93     824.9935   -182180.94    165154.58   0.80550107   0.20766341   0.22788357   0.41368268 
 4912000     306.2825    308.92084    -120.8316   -183004.95    824.13906   -182180.81    164931.82   0.80584746    0.2079859   0.22823273   0.41402203 
 4914000    306.83007    308.36216   -204.26875   -183003.52     822.6486   -182180.87    165044.59    0.8067298   0.20791558   0.22806258   0.41423599 
 4916000    306.37089     308.4131    54.912334   -183003.68    822.78451    -182180.9    165536.57   0.80647195   0.20899832   0.22795942   0.41447657 
 4918000    305.00686    306.41658   -94.316913   -182998.13     817.4582   -182180.67    166441.88   0.80627465   0.20892162    0.2280816   0.41442596 
 4920000    303.94849    307.50526   -73.503757   -183001.05    820.36258   -182180.69    167494.16   0.80624737   0.20887299   0.22804594   0.41438877 
 4922000    305.81246    308.30958   -12.524199   -183003.26    822.50833   -182180.75    168324.12   0.80660635   0.20980477   0.22800422   0.41480511 
 4924000    304.20971    305.24849   -98.547362   -182995.16    814.34196   -182180.82    168121.45   0.80755574   0.20965047   0.22807054   0.41509225 
 4926000    304.54656    307.46616   -111.51071   -183000.83    820.25827   -182180.58    167769.83   0.80725646   0.20972305   0.22800866   0.41499606 
 4928000    305.22241    307.00289    78.032277   -182999.69    819.02235   -182180.66    167112.92   0.80774919   0.20966462    0.2279141    0.4151093 
 4930000    307.10735    306.74536   -121.38246   -182999.19     818.3353   -182180.86    165896.74   0.80778752    0.2095235   0.22780324   0.41503809 
 4932000    309.50844    307.64143   -174.58495   -183001.51    820.72586   -182180.78    165474.46   0.80801508   0.20947416   0.22769972   0.41506299 
 4934000    309.79585    309.60755   -167.90775   -183006.76    825.97106   -182180.79    165199.27   0.80844881   0.20966454    0.2275228   0.41521205 
 4936000    306.84372    306.63075   -49.679551   -182998.69    818.02956   -182180.66    165812.14   0.80909097   0.20952472   0.22746189   0.41535919 
 4938000    307.32591    307.04897    25.152866    -182999.9    819.14528   -182180.75     166617.2   0.80877759   0.20971883   0.22773854   0.41541165 
 4940000    305.81611    305.98142   -162.48282   -182997.06    816.29727   -182180.76    167045.69    0.8084645   0.21000864   0.22774749   0.41540688 
 4942000    307.76243    308.33317   -56.436124    -183003.2    822.57127   -182180.63    166656.12   0.80869881   0.20994176   0.22764491    0.4154285 
 4944000    308.03588    309.14476   -87.038943   -183005.45    824.73643   -182180.71    165620.15   0.80881529   0.20983183   0.22767063   0.41543925 
 4946000    308.56705      309.054   -143.05109   -183005.35     824.4943   -182180.86    165050.41   0.80854014   0.20999884    0.2275962   0.41537839 
 4948000    307.48044    308.87732   -202.69654   -183004.69    824.02295   -182180.67    165048.82   0.80846244   0.20986271   0.22749176    0.4152723 
 4950000    308.44165    308.23595   -93.342418   -183003.02    822.31191   -182180.71    164854.38   0.80856186   0.20985211   0.22781181   0.41540859 
 4952000    306.89597    307.35949   -93.745019   -183000.79    819.97369   -182180.82    165297.38   0.80874111   0.20981424   0.22782729   0.41546088 
 4954000    306.01127     307.4902    31.280421   -183000.98    820.32239   -182180.66    166286.27   0.80845575    0.2097674   0.22773508   0.41531941 
 4956000    307.82139    308.88958   -180.76354   -183004.77    824.05565   -182180.72    166431.75   0.80870255   0.20971822   0.22762394   0.41534824 
 4958000    308.15224    309.45756   -67.071841   -183006.36    825.57092   -182180.79    166039.22   0.80827798   0.21004163   0.22752698    0.4152822 
 4960000    309.13681    308.51673     53.80876   -183003.73    823.06099   -182180.67    165611.85   0.80786093   0.21053352   0.22754567   0.41531337 
 4962000    310.18642    309.48481   -18.872166   -183006.37    825.64362   -182180.73     165421.7   0.80805601   0.21051484    0.2274441   0.41533832 
 4964000    306.96271    306.39204   -146.30476   -182998.22    817.39273   -182180.83    165630.79   0.80815546   0.21055751   0.22744216   0.41538504 
 4966000    307.80616    306.27644    120.70985    -182997.9    817.08433   -182180.82    166185.89   0.80760383   0.21054354   0.22738301   0.41517679 
 4968000    308.62794    308.49042   -159.02983   -183003.83    822.99078   -182180.84    166708.57    0.8074334   0.21047703   0.22727866   0.41506303 
 4970000    306.79091    307.59959   -295.03802   -183001.35    820.61422   -182180.74    167011.34   0.80869998   0.21048819   0.22722479   0.41547098 
 4972000    306.26026     306.2364   -208.64913   -182997.57    816.97752   -182180.59     166743.3   0.80996438   0.21105358    0.2271791   0.41606569 
 4974000    306.86997    307.85103    72.263547   -183002.02    821.28502   -182180.73    166643.74   0.80986405   0.21075685   0.22720734   0.41594274 
 4976000    307.94079    308.63012    52.646245   -183004.15    823.36347   -182180.79    166623.22   0.80973954   0.21065475   0.22770555   0.41603328 
 4978000    307.34512    306.08559     47.27743   -182997.33    816.57518   -182180.76    166478.48    0.8094466   0.21057996   0.22787177   0.41596611 
 4980000    304.22118    304.02957   -67.839125   -182991.65    811.09013   -182180.56     166478.6   0.80921068   0.21052385   0.22786278   0.41586577 
 4982000    307.72742    308.75192    110.52864   -183004.46    823.68842   -182180.77    166493.65   0.80890998   0.21068604   0.22778465   0.41579355 
 4984000    307.58688    307.63925   -74.888114   -183001.47    820.72002   -182180.75    166300.08    0.8101236    0.2105457   0.22783885   0.41616938 
 4986000     308.5876      308.792   -94.409624   -183004.48    823.79533   -182180.68    166084.68   0.81182774   0.21071731   0.22776379   0.41676961 
 4988000    309.10718    308.67281    13.868139   -183004.13    823.47738   -182180.65     165558.5   0.81275061   0.21075692   0.22786806    0.4171252 
 4990000    305.59702    305.61786   -88.683517   -182995.95    815.32736   -182180.62    165196.27   0.81286359   0.21083671   0.22785503   0.41718511 
 4992000    309.19161    308.42051    4.2284155   -183003.45    822.80427   -182180.64    164966.82   0.81269044   0.21087463   0.22870011   0.41742173 
 4994000    309.93988    309.91811    255.01301   -183007.32    826.79956   -182180.52    165141.61   0.81275712   0.21088191   0.22833682   0.41732528 
 4996000    308.59995    308.21761   -175.49073   -183002.89    822.26297   -182180.63    165221.22   0.81260402   0.21080919   0.22836685   0.41726002 
 4998000    307.77561    308.01434    12.627942   -183002.36     821.7207   -182180.64     165369.4   0.81228461   0.21076006   0.22822096   0.41708854 
 5000000    306.68412    308.43283    57.795151   -183003.43    822.83715   -182180.59    165675.07   0.81199516    0.2106504   0.22815131   0.41693229 
Loop time of 220574 on 64 procs for 5000000 steps with 24000 atoms

Performance: 1.959 ns/day, 12.254 hours/ns, 22.668 timesteps/s
96.2% CPU use with 64 MPI tasks x no OpenMP threads

MPI task timing breakdown:
Section |  min time  |  avg time  |  max time  |%varavg| %total
---------------------------------------------------------------
Pair    | 12.993     | 40973      | 1.2715e+05 |26250.9 | 18.58
Bond    | 4.9644     | 1653.8     | 8914.1     |6893.1 |  0.75
Kspace  | 57423      | 1.447e+05  | 1.8871e+05 |14395.8 | 65.60
Neigh   | 5542       | 5760.2     | 5982.3     | 241.0 |  2.61
Comm    | 53.764     | 6761.6     | 12046      |6351.9 |  3.07
Output  | 1199.7     | 1216.2     | 1370.5     |  59.2 |  0.55
Modify  | 10094      | 12015      | 14873      |1273.2 |  5.45
Other   |            | 7498       |            |       |  3.40

Nlocal:    375 ave 1332 max 0 min
Histogram: 40 0 0 0 0 1 13 2 1 7
Nghost:    3079.05 ave 10047 max 0 min
Histogram: 24 16 0 0 0 12 4 0 0 8
Neighs:    100913 ave 540397 max 0 min
Histogram: 40 5 3 2 6 0 0 1 4 3

Total # of neighbors = 6458409
Ave neighs/atom = 269.1
Ave special neighs/atom = 6
Neighbor list builds = 114955
Dangerous builds = 0
undump             3
write_data 		   nve.data
PPPM initialization ...
  using 12-bit tables for long-range coulomb (../kspace.cpp:321)
  G vector (1/distance) = 0.272888
  grid = 45 45 90
  stencil order = 5
  estimated absolute RMS force accuracy = 0.00139845
  estimated relative force accuracy = 9.71167e-05
  using double precision FFTs
  3d grid and FFT values/proc = 9396 4050
Neighbor list info ...
  update every 1 steps, delay 0 steps, check yes
  max neighbors/atom: 10000, page size: 100000
  master list distance cutoff = 13
  ghost atom cutoff = 13
  binsize = 6.5, bins = 11 11 29
  4 neighbor lists, perpetual/occasional/extra = 4 0 0
  (1) pair lj/cut/coul/long, perpetual, skip from (4)
      attributes: half, newton on
      pair build: skip
      stencil: none
      bin: none
  (2) pair buck/coul/long, perpetual, skip from (4)
      attributes: half, newton on
      pair build: skip
      stencil: none
      bin: none
  (3) pair table, perpetual, skip from (4)
      attributes: half, newton on
      pair build: skip
      stencil: none
      bin: none
  (4) neighbor class addition, perpetual
      attributes: half, newton on
      pair build: half/bin/newton
      stencil: half/bin/3d/newton
      bin: standard
write_restart 	   nve.rst
PPPM initialization ...
  using 12-bit tables for long-range coulomb (../kspace.cpp:321)
  G vector (1/distance) = 0.272888
  grid = 45 45 90
  stencil order = 5
  estimated absolute RMS force accuracy = 0.00139845
  estimated relative force accuracy = 9.71167e-05
  using double precision FFTs
  3d grid and FFT values/proc = 9396 4050
Neighbor list info ...
  update every 1 steps, delay 0 steps, check yes
  max neighbors/atom: 10000, page size: 100000
  master list distance cutoff = 13
  ghost atom cutoff = 13
  binsize = 6.5, bins = 11 11 29
  4 neighbor lists, perpetual/occasional/extra = 4 0 0
  (1) pair lj/cut/coul/long, perpetual, skip from (4)
      attributes: half, newton on
      pair build: skip
      stencil: none
      bin: none
  (2) pair buck/coul/long, perpetual, skip from (4)
      attributes: half, newton on
      pair build: skip
      stencil: none
      bin: none
  (3) pair table, perpetual, skip from (4)
      attributes: half, newton on
      pair build: skip
      stencil: none
      bin: none
  (4) neighbor class addition, perpetual
      attributes: half, newton on
      pair build: half/bin/newton
      stencil: half/bin/3d/newton
      bin: standard
Total wall time: 61:16:15
