LAMMPS (22 Aug 2018)
units	metal
boundary p p p
atom_style full
bond_style harmonic
angle_style harmonic
dihedral_style opls
restart 1000 rst.1 rst.2
variable		cut_off equal 10.0
timestep	    1e-3
read_restart  npt.rst
WARNING: Restart file used different # of processors (../read_restart.cpp:725)
  restoring atom style full from restart
  orthogonal box = (-4.78383 -4.78383 -18.9428) to (65.7872 65.7872 166.986)
  2 by 2 by 8 MPI processor grid
  restoring pair style hybrid/overlay from restart
  restoring bond style harmonic from restart
  restoring angle style harmonic from restart
  restoring dihedral style opls from restart
  24000 atoms
  13680 bonds
  25920 angles
  32400 dihedrals
  4 = max # of 1-2 neighbors
  6 = max # of 1-3 neighbors
  12 = max # of 1-4 neighbors
  16 = max # of special neighbors
include '../../bond.coeff'
## IPA bond information in metal units (energy ev)

#Bond Coeffs

bond_coeff   1  11.63090054    1.5290 # C3H-C2H
bond_coeff   2  14.75564412    1.0900 # C3H-H
bond_coeff   3  11.63090054    1.5290 # C2H-C2H
bond_coeff   4  14.75564412    1.0900 # C2H-H

#Angle Coeffs

angle_coeff   1   2.53231622  112.7000 # C3H-C2H-C2H
angle_coeff   2   1.62746094  110.7000 # C3H-C2H-H
angle_coeff   3   1.62746094  110.7000 # C2H-C3H-H
angle_coeff   4   2.53231622  112.7000 # C2H-C2H-C2H
angle_coeff   5   1.62746094  110.7000 # C2H-C2H-H
angle_coeff   6   1.43214358  107.8000 # H-C3H-H
angle_coeff   7   1.43214358  107.8000 # H-C2H-H

#Dihedral Coeffs

dihedral_coeff   1    0.07551166	-0.0068138			0.0121086	0 # C3H-C2H-C2H-C2H
dihedral_coeff   2    0				0					0.0158844	0 # C3H-C2H-C2H-H
dihedral_coeff   3    0.07551166	-0.0068138			0.0121086	0 # C2H-C2H-C2H-C2H
dihedral_coeff   4    0				0					0.0158844	0 # C2H-C2H-C2H-H
dihedral_coeff   5    0				0					0.0158844	0 # H-C3H-C2H-C2H
dihedral_coeff   6    0				0					0.0138012	0 # H-C3H-C2H-H
dihedral_coeff   7    0				0					0.0138012	0 # H-C2H-C2H-H

## metal time unit is picoseconds, 1 ps = 1000 fs,
## engery unit is eV, 1 ev = 23 kcal/mol       1 kcal/mol = 0.043 ev
pair_style    	hybrid/overlay lj/cut/coul/long ${cut_off} ${cut_off}  buck/coul/long ${cut_off} table linear 39901
pair_style    	hybrid/overlay lj/cut/coul/long 10 ${cut_off}  buck/coul/long ${cut_off} table linear 39901
pair_style    	hybrid/overlay lj/cut/coul/long 10 10  buck/coul/long ${cut_off} table linear 39901
pair_style    	hybrid/overlay lj/cut/coul/long 10 10  buck/coul/long 10 table linear 39901
pair_modify mix geometric
special_bonds lj/coul 0.0 0.0 0.5
kspace_style pppm 1.0e-4
fix fSHAKE all shake 0.0001 20 0 b 2 4 # modified to the hexane shaked bond information
  0 = # of size 2 clusters
  2880 = # of size 3 clusters
  1440 = # of size 4 clusters
  0 = # of frozen angles
include '../../pair.coeff_silica'

pair_coeff    	4 4 buck/coul/long 0.0 1.0 0.0                #No interactions between Si atoms
pair_coeff   	4 5 buck/coul/long 18003.757200 0.205205 133.538100
pair_coeff    	5 5 buck/coul/long 1388.773000  0.362319 175.000000         #BKS interaction in PRL 64 1955 (1990)
pair_modify   	shift yes
pair_coeff    	4 5 table potential_SiO2.TPF Si-O ${cut_off}
pair_coeff    	4 5 table potential_SiO2.TPF Si-O 10
pair_coeff    	5 5 table potential_SiO2.TPF O-O ${cut_off}           #See the potential file for more information
pair_coeff    	5 5 table potential_SiO2.TPF O-O 10           
WARNING: 1 of 39901 force values in table are inconsistent with -dE/dr.
  Should only be flagged at inflection points (../pair_table.cpp:481)
include '../../pair.coeff_mix'
pair_coeff  1  1   lj/cut/coul/long    0.00286440    3.50000000
pair_coeff  1  2   lj/cut/coul/long    0.00286440    3.50000000
pair_coeff  1  3   lj/cut/coul/long    0.00193118    3.00000000
pair_coeff  1  4   lj/cut/coul/long    0.00223045    3.77671685
pair_coeff  1  5   lj/cut/coul/long    0.00532389    3.17989244

pair_coeff  2  2   lj/cut/coul/long    0.00286440    3.50000000
pair_coeff  2  3   lj/cut/coul/long    0.00193118    3.00000000
pair_coeff  2  4   lj/cut/coul/long    0.00223045    3.77671685
pair_coeff  2  5   lj/cut/coul/long    0.00532389    3.17989244

pair_coeff  3  3   lj/cut/coul/long    0.00130200    2.50000000
pair_coeff  3  4   lj/cut/coul/long    0.00150377    3.27671685
pair_coeff  3  5   lj/cut/coul/long    0.00358937    2.67989244


neighbor		3.0 bin
neigh_modify	check yes every 1 delay 0 page  100000 one 10000

reset_timestep 	0

# change this for different systems
group liquid type 1 2 3
14400 atoms in group liquid
group silica type 4 5
9600 atoms in group silica

# change for different systems
region 1 block INF INF INF INF 60 75  # upper move region
region 2 block INF INF INF INF 0  14   # lower move region

region 3 block INF INF INF INF 35 60 # upper thermo region
region 4 block INF INF INF INF 14 35 # lower thermo region

group upper_move region 1
2854 atoms in group upper_move
group lower_move region 2
1722 atoms in group lower_move

group upper_thermo region 3
10584 atoms in group upper_thermo
group lower_thermo region 4
8840 atoms in group lower_thermo

group upper_wall_thermo subtract upper_thermo liquid
1946 atoms in group upper_wall_thermo
group lower_wall_thermo subtract lower_thermo liquid
3078 atoms in group lower_wall_thermo
group wall_thermo union upper_wall_thermo lower_wall_thermo
5024 atoms in group wall_thermo


# 1 pascal is equal to 9.8692316931427E-6 atm, or 1.0E-5 bar.
variable           vhigh            equal    2.0
variable           vlow             equal    0.0
variable           bar2Pa           equal    1e5
variable           ps2s             equal    1.0e-12
variable           PaS2mPaS         equal    1000
variable           viscoeff         equal    v_bar2Pa*v_ps2s*v_PaS2mPaS

fix       nveall 	all 	 	 	nve
fix       move1     upper_move 	    move  linear   ${vhigh}   0    0   units box
fix       move1     upper_move 	    move  linear   2   0    0   units box
fix       move2     lower_move      move  linear   ${vlow}    0    0   units box
fix       move2     lower_move      move  linear   0    0    0   units box

# compute	     mobile liquid temp
# fix	    	 1 liquid temp/rescale 200 300.0 300.0 10 1.0
# fix_modify   1 temp mobile

compute            walltemp   wall_thermo    temp/partial 0 1 1
fix                lanfix    wall_thermo    langevin 300 300 1e-1 123456 tally yes
fix_modify         lanfix    temp   walltemp

compute	     mobile liquid temp

compute            per_liquid_vol          liquid     voronoi/atom
compute            liquid_vol              liquid     reduce   sum   c_per_liquid_vol[1]
variable           real_liquid_thickness   equal      c_liquid_vol/(lx*ly)

compute            1  liquid stress/atom mobile
compute            11 liquid reduce      sum  c_1[1]
compute            12 liquid reduce      sum  c_1[2]
compute            13 liquid reduce      sum  c_1[3]
compute            14 liquid reduce      sum  c_1[4]
compute            15 liquid reduce      sum  c_1[5]
compute            16 liquid reduce      sum  c_1[6]

variable           sigma1v 				   equal      c_15/c_liquid_vol
variable           visc01  				   equal      v_viscoeff*v_sigma1v/(${vhigh}/v_real_liquid_thickness)
variable           visc01  				   equal      v_viscoeff*v_sigma1v/(2/v_real_liquid_thickness)

compute   10    liquid     chunk/atom   bin/1d  z    lower    0.5  units  box
fix       101   liquid     ave/chunk    100    20   2000   10   vx  density/mass density/number   norm  sample file  v.d.liquid

fix   pvis    liquid   ave/time     100     20     2000  v_visc01 c_11 c_12 c_13 c_14 c_15 c_16  file    viscosity.profile

thermo             100
thermo_style       custom step c_mobile temp press pe ke etotal density f_lanfix
dump               3 all custom 2000 nve.lammpstrj id type x y z vx vy vz fx fy fz
run                2000000
PPPM initialization ...
  using 12-bit tables for long-range coulomb (../kspace.cpp:321)
  G vector (1/distance) = 0.272921
  grid = 45 45 90
  stencil order = 5
  estimated absolute RMS force accuracy = 0.00139674
  estimated relative force accuracy = 9.69982e-05
  using double precision FFTs
  3d grid and FFT values/proc = 15138 6348
Unused restart file global fix info:
  fix style: npt, fix ID: 2
WARNING: One or more atoms are time integrated more than once (../modify.cpp:279)
Neighbor list info ...
  update every 1 steps, delay 0 steps, check yes
  max neighbors/atom: 10000, page size: 100000
  master list distance cutoff = 13
  ghost atom cutoff = 13
  binsize = 6.5, bins = 11 11 29
  4 neighbor lists, perpetual/occasional/extra = 4 0 0
  (1) pair lj/cut/coul/long, perpetual, skip from (4)
      attributes: half, newton on
      pair build: skip
      stencil: none
      bin: none
  (2) pair buck/coul/long, perpetual, skip from (4)
      attributes: half, newton on
      pair build: skip
      stencil: none
      bin: none
  (3) pair table, perpetual, skip from (4)
      attributes: half, newton on
      pair build: skip
      stencil: none
      bin: none
  (4) neighbor class addition, perpetual
      attributes: half, newton on
      pair build: half/bin/newton
      stencil: half/bin/3d/newton
      bin: standard
Per MPI rank memory allocation (min/avg/max) = 4.9 | 19.99 | 35.51 Mbytes
Step c_mobile Temp Press PotEng KinEng TotEng Density f_lanfix 
       0    296.06343    298.54331   -79.986973   -183010.55    796.45388   -182214.09   0.45606776           -0 
     100    295.94095    239.79679   -497.59932   -183006.82    639.72992   -182367.09   0.45606776    4.8046501 
     200    298.00977    246.49937   -123.30119   -183018.34    657.61106   -182360.73   0.45606776    9.6555071 
     300    300.34459    243.46198   -219.90765   -183015.41    649.50791   -182365.91   0.45606776    9.5430955 
     400    299.11084    238.72869    -280.7863   -183013.51    636.88044   -182376.63   0.45606776    12.337116 
     500    301.13492    240.94975   -383.70547   -183014.89    642.80578   -182372.09   0.45606776     9.880268 
     600    300.89646    243.42178   -380.75454   -183015.68    649.40065   -182366.28   0.45606776    10.094866 
     700    302.19216    244.47421   -410.77788    -183014.3    652.20834   -182362.09   0.45606776    7.6458489 
     800    301.80175    242.59944    -326.5494   -183014.29    647.20681   -182367.08   0.45606776    10.497833 
     900    304.10101    243.46571   -537.10605   -183016.17    649.51785   -182366.65   0.45606776    8.7426744 
    1000    300.87361    240.99163   -352.67725   -183013.48    642.91751   -182370.56   0.45606776    13.211619 
    1100    299.87737    241.76696   -235.28265   -183008.56    644.98594   -182363.57   0.45606776     8.313965 
    1200    302.50309     242.8118   -132.84281   -183008.91    647.77335   -182361.14   0.45606776    7.4317247 
    1300    300.00032    241.30037   -401.45823   -183010.96    643.74116   -182367.22   0.45606776    12.359812 
    1400    301.87379    241.84892   -524.41878   -183008.76    645.20459   -182363.56   0.45606776    8.4024241 
    1500    301.30959    241.97349   -280.17456   -183008.41     645.5369   -182362.88   0.45606776    6.7100288 
    1600    300.66795    242.54421   -328.95057   -183004.35    647.05947   -182357.29   0.45606776    2.9573321 
    1700    298.69049     242.5448   -292.45641   -183006.06    647.06106      -182359   0.45606776    5.6633328 
    1800    300.75885    241.23647   -412.07518   -183011.17    643.57068    -182367.6   0.45606776    13.236509 
    1900    304.67239    244.63231   -267.39751   -183014.69     652.6301   -182362.06   0.45606776    8.4238262 
    2000    299.28655    240.79055   -297.89204   -183006.75    642.38105   -182364.37   0.45606776    10.044011 
    2100    305.00227    243.69123   -268.30332   -183020.91     650.1195   -182370.79   0.45606776    16.904964 
    2200    301.20764     241.0139   -290.98793   -183015.11    642.97693   -182372.14   0.45606776    19.535435 
    2300    302.26485    241.68313   -248.25546    -183014.9    644.76229   -182370.13   0.45606776    17.009319 
    2400    305.86356    243.06966   -497.71483   -183016.03    648.46126   -182367.57   0.45606776    14.034325 
    2500     303.8722     242.9425   -342.75113   -183016.62    648.12203    -182368.5   0.45606776    14.968297 
    2600    300.70346     241.1966   -288.40492   -183012.81    643.46433   -182369.35   0.45606776    17.708793 
    2700     301.2831     241.3746   -232.96118   -183013.72    643.93919   -182369.78   0.45606776    17.920845 
    2800     302.6772    241.51083   -320.30191   -183011.93    644.30263   -182367.63   0.45606776    15.589212 
    2900     307.0401    244.76261   -287.58235   -183023.78    652.97771    -182370.8   0.45606776    19.784807 
    3000    306.61545     243.6936   -417.61059   -183017.64    650.12581   -182367.52   0.45606776    15.805296 
    3100    303.76592    242.66228   -354.07308   -183016.93    647.37446   -182369.56   0.45606776    18.445814 
    3200    306.36707    244.13448   -330.26833   -183016.15    651.30199   -182364.84   0.45606776    14.852871 
    3300    306.19821    244.20811   -226.02189   -183017.17    651.49844   -182365.67   0.45606776    15.081923 
    3400      304.724    242.87454   -509.13441   -183013.03    647.94072   -182365.09   0.45606776    14.262472 
    3500      307.142    245.16839   -292.89891   -183013.95    654.06026   -182359.89   0.45606776    9.5420507 
    3600    307.07136    246.37173   -240.84432   -183015.93    657.27052   -182358.66   0.45606776    9.2569296 
    3700     301.8959    242.91789   -436.72654   -183011.01    648.05637   -182362.95   0.45606776    13.341221 
    3800    304.30924    243.50523   -267.90703   -183009.06    649.62329   -182359.43   0.45606776    9.5594974 
    3900    304.82707    244.35512   -297.48762    -183014.2    651.89063   -182362.31   0.45606776    12.012102 
    4000    302.90783    243.06598   -259.13352   -183006.82    648.45144   -182358.37   0.45606776    7.8695858 
    4100    304.01855    244.04679   -323.56469   -183009.81    651.06807   -182358.75   0.45606776    8.6236136 
    4200    304.07942     246.0338   -410.71408   -183009.95    656.36901   -182353.58   0.45606776     4.733391 
    4300    301.97998    243.17632   -378.77563   -183001.89    648.74581   -182353.15   0.45606776     4.492541 
    4400     305.2627    244.03643   -344.72804   -183011.58    651.04042   -182360.54   0.45606776    9.4443281 
    4500    304.11146    242.74537   -272.32862   -183013.87    647.59612   -182366.27   0.45606776    15.713936 
    4600    304.62002    242.72429   -326.43974   -183010.92    647.53991   -182363.38   0.45606776    13.255691 
    4700    304.76726     243.3328   -108.49496   -183011.09    649.16328   -182361.93   0.45606776    13.519229 
    4800    306.30205    243.38268   -426.60589   -183016.54    649.29636   -182367.24   0.45606776    18.753336 
    4900    306.24238    244.03725   -308.25435   -183013.44    651.04262    -182362.4   0.45606776    11.978495 
    5000    303.85512    244.05207   -286.95836   -183009.98    651.08216    -182358.9   0.45606776    9.6250065 
    5100    307.40575    244.25677   -378.50673   -183011.67    651.62824   -182360.04   0.45606776    11.483822 
    5200    305.37798    244.05371   -317.85095   -183013.66    651.08653   -182362.58   0.45606776    13.249118 
    5300    302.54958     243.5319   -262.59808   -183012.63    649.69442   -182362.93   0.45606776     14.28239 
    5400    308.07524    245.86613   -348.15484   -183016.42    655.92169    -182360.5   0.45606776    11.634944 
    5500    307.28012    244.38715   -233.84886   -183012.71    651.97606   -182360.73   0.45606776    10.144883 
    5600    306.96187    245.77595   -388.07437   -183014.52    655.68111   -182358.84   0.45606776    10.124018 
    5700    303.99513    244.38273   -280.52646   -183012.74    651.96429   -182360.78   0.45606776    12.514778 
    5800    303.73756    244.05425   -309.28237   -183014.21    651.08796   -182363.13   0.45606776    14.620465 
    5900    303.51512    241.88731   -269.35164   -183011.03    645.30701   -182365.72   0.45606776    16.194763 
    6000    302.86177    242.67825   -382.92013   -183008.55    647.41707   -182361.13   0.45606776    12.761275 
    6100    307.71385    245.57831   -363.38147   -183014.61    655.15386   -182359.46   0.45606776    12.396272 
    6200    305.12746    243.94354   -259.37085   -183010.92    650.79261   -182360.13   0.45606776    12.584249 
    6300    303.01325    241.86955   -333.11645   -183006.72    645.25961   -182361.46   0.45606776    12.497674 
    6400     305.5564    244.71761   -188.82915   -183014.57    652.85768   -182361.71   0.45606776    13.383962 
    6500    306.30084    244.02395   -297.25896   -183016.54    651.00712   -182365.54   0.45606776    18.473034 
    6600    307.67937    244.57318    -273.4523   -183014.53    652.47236   -182362.06   0.45606776    14.785553 
    6700     304.2302    243.49399   -342.14813    -183011.9    649.59331   -182362.31   0.45606776    16.257841 
    6800    304.94728    244.67334   -241.08067   -183011.52    652.73956   -182358.78   0.45606776    11.900007 
    6900    303.16885    243.67172   -353.32712   -183006.57    650.06745    -182356.5   0.45606776    9.4861581 
    7000    306.50942    246.21886   -249.65501   -183013.81     656.8627   -182356.94   0.45606776    9.0678768 
    7100    307.86236    246.48612   -181.14315   -183017.73     657.5757   -182360.15   0.45606776    13.746174 
    7200    307.84267     245.5996   -349.14462   -183013.81    655.21066    -182358.6   0.45606776    12.465657 
    7300    301.88661    242.70979   -332.18545   -183006.45    647.50122   -182358.95   0.45606776    11.858103 
    7400    304.64792    243.98929   -270.04693   -183012.02    650.91465    -182361.1   0.45606776    14.057434 
    7500     306.2726    245.10357   -397.27681   -183011.49    653.88733    -182357.6   0.45606776    10.766845 
    7600    308.96205    246.21833   -320.03667   -183016.02     656.8613   -182359.16   0.45606776    12.702956 
    7700    307.84405     244.6532   -259.21589   -183012.31    652.68585   -182359.63   0.45606776    14.394724 
    7800    304.05795    243.15105   -336.03825   -183011.09    648.67841   -182362.41   0.45606776    16.209994 
    7900    308.45739    245.06503   -325.62193   -183015.14    653.78452   -182361.35   0.45606776    15.680478 
    8000     306.1354     244.1975   -154.38172   -183010.07    651.47012    -182358.6   0.45606776    12.906125 
    8100    305.78409    245.65171   -412.81395   -183013.32    655.34965   -182357.97   0.45606776    12.781516 
    8200    305.83321    244.03729   -300.06756   -183009.86    651.04272   -182358.81   0.45606776    13.914991 
    8300    307.50262    246.14275   -112.90977   -183015.64    656.65966   -182358.98   0.45606776    13.309675 
    8400    307.83939    244.48895   -251.53841   -183011.23    652.24766   -182358.98   0.45606776     13.71623 
    8500    306.93984    244.39006   -275.02729   -183014.23    651.98382   -182362.24   0.45606776    16.591355 
    8600    305.67654      244.003   -336.96725    -183016.1    650.95123   -182365.15   0.45606776    20.266746 
    8700     309.4822    246.76522   -334.29257   -183017.11    658.32029   -182358.79   0.45606776    14.279034 
    8800    304.68306     242.7774   -411.97557   -183006.87    647.68159   -182359.19   0.45606776    13.532334 
    8900    304.54285    242.91837   -327.43898   -183005.67    648.05766   -182357.61   0.45606776    12.260753 
    9000    306.64373    243.82968   -326.03074   -183009.06    650.48886   -182358.57   0.45606776    13.379425 
    9100    306.34863    244.91357   -352.63349   -183009.83    653.38044   -182356.45   0.45606776    11.848761 
    9200    305.50568    244.16023   -213.86954   -183010.96    651.37071   -182359.59   0.45606776    15.252471 
    9300    306.64501    244.54192    -366.6271   -183010.03    652.38896   -182357.64   0.45606776     12.96465 
    9400    305.03201    244.75742   -328.19138    -183010.1    652.96387   -182357.14   0.45606776    12.265192 
    9500     306.3767    245.75778   -255.33923   -183014.21    655.63265   -182358.57   0.45606776    14.707302 
    9600    307.38445    246.12092   -394.24296   -183011.75    656.60143   -182355.15   0.45606776    10.995369 
    9700    307.16198    245.17375    -333.6507   -183009.42    654.07457   -182355.35   0.45606776      10.3414 
    9800    306.33074    244.61366   -440.09975   -183009.98    652.58035    -182357.4   0.45606776    13.481198 
    9900    308.45094    246.31857   -195.98027   -183015.28    657.12872   -182358.15   0.45606776    15.355028 
   10000    309.32609    246.56845   -291.62784   -183015.36    657.79533   -182357.56   0.45606776    13.153662 
   10100    304.22986    243.83571    -309.7709   -183006.46    650.50494   -182355.95   0.45606776    11.133277 
   10200    307.22939    247.05244   -480.72265   -183011.45    659.08653   -182352.36   0.45606776    9.2119358 
   10300    306.00692    243.84275   -493.84072   -183009.21    650.52371   -182358.69   0.45606776    15.767517 
   10400    306.47334    244.08462   -284.97269   -183010.68    651.16898   -182359.52   0.45606776    15.936734 
   10500    306.46318    244.04801   -215.84747   -183007.48    651.07131   -182356.41   0.45606776    13.217738 
   10600    307.42383    245.43936   -431.20183   -183008.19    654.78317   -182353.41   0.45606776    10.189472 
   10700     306.1622    245.63314   -337.22755   -183008.21    655.30013   -182352.91   0.45606776    10.222734 
   10800    305.46655    244.55324   -324.55019   -183007.24    652.41917   -182354.83   0.45606776    12.818418 
   10900    308.36432    245.25294   -279.30972   -183012.23    654.28582   -182357.95   0.45606776     15.19928 
   11000    307.97808    244.01531   -333.41123   -183010.23    650.98407   -182359.25   0.45606776    16.047303 
   11100    306.13266    244.39479   -352.55995   -183007.16    651.99644   -182355.16   0.45606776    13.553274 
   11200    304.23817    242.82622   -335.02648   -183008.82    647.81181      -182361   0.45606776    18.839659 
   11300    306.65296    244.10159   -233.58149   -183009.39    651.21424   -182358.18   0.45606776    16.141898 
   11400    306.06464    243.69796   -202.60499   -183009.39    650.13744   -182359.26   0.45606776    16.643397 
   11500    309.89341    246.92785   -236.60168   -183014.61    658.75416   -182355.86   0.45606776    14.203472 
   11600    308.28399    245.38745   -271.12012   -183012.62    654.64466   -182357.98   0.45606776    17.251206 
   11700    306.53912    244.92434   -524.58806   -183009.36    653.40918   -182355.95   0.45606776    14.378167 
   11800     308.2771    245.74903   -339.76253   -183013.74    655.60928   -182358.13   0.45606776    16.989081 
   11900     307.7745    244.68633   -421.35139   -183010.37    652.77424    -182357.6   0.45606776    15.865352 
   12000    306.78094    245.12261   -391.22355   -183007.73    653.93814   -182353.79   0.45606776    12.896867 
   12100    307.92155    246.19677   -379.70172   -183007.49    656.80378   -182350.69   0.45606776    11.629551 
   12200    307.01081    245.13669    -341.3412    -183007.6    653.97571   -182353.62   0.45606776    13.201655 
   12300    307.80155    246.30704   -326.72955    -183010.4    657.09796    -182353.3   0.45606776    11.544452 
   12400    307.92708     245.4041   -288.61491   -183008.43    654.68908   -182353.74   0.45606776    12.556643 
   12500    309.25073    245.92856   -189.62262      -183013    656.08825   -182356.91   0.45606776    16.869531 
   12600    306.95133    244.92296   -81.398182   -183005.68    653.40551   -182352.28   0.45606776    11.929782 
   12700    310.82496    246.68753   -293.73051    -183008.4    658.11304   -182350.29   0.45606776    10.511914 
   12800    311.37162    248.28415   -307.05393   -183013.91    662.37248   -182351.54   0.45606776    12.272504 
   12900    306.55176    244.08402   -218.35469   -183010.51    651.16738   -182359.34   0.45606776    18.656714 
   13000    306.01218    243.51596   -397.56087   -183008.34     649.6519   -182358.69   0.45606776    17.889528 
   13100    308.67805    245.61848   -307.99675   -183010.29    655.26102   -182355.03   0.45606776     15.16866 
   13200    309.34376    244.85947   -276.34344   -183010.37    653.23611   -182357.14   0.45606776    17.242792 
   13300    307.18237    245.31853   -375.57324   -183011.33    654.46082   -182356.87   0.45606776    17.570089 
   13400    307.34898    245.62702   -278.04626   -183007.86    655.28381   -182352.57   0.45606776    12.376723 
   13500    307.67897    247.22879   -288.87628   -183011.16    659.55699   -182351.61   0.45606776    12.641038 
   13600    308.68917    248.85084   -198.90626   -183010.63    663.88431   -182346.75   0.45606776    9.1298824 
   13700    307.71925    245.79769   -225.37993   -183005.86     655.7391   -182350.12   0.45606776    11.816821 
   13800    308.39721    246.76404   -245.90827   -183012.53    658.31715   -182354.22   0.45606776    15.132003 
   13900    309.04015    246.85858   -180.66445   -183013.16    658.56934   -182354.59   0.45606776    15.209707 
   14000     308.3365    245.74963   -422.87002   -183008.98     655.6109   -182353.37   0.45606776    15.530825 
   14100    309.77286    246.96855   -439.83858   -183010.42    658.86274   -182351.56   0.45606776    14.279619 
   14200    309.32884    247.50098   -399.71412   -183013.86    660.28316   -182353.58   0.45606776    15.708035 
   14300    307.91458    244.18701   -401.87336   -183007.78    651.44213   -182356.34   0.45606776    18.116923 
   14400    310.46707    245.66141   -215.70987   -183013.31    655.37554   -182357.93   0.45606776    20.799989 
   14500    307.06867    246.28835   -268.03842   -183007.61    657.04809   -182350.56   0.45606776    13.416971 
   14600    308.95203    246.86135    -319.3909   -183008.63    658.57675   -182350.06   0.45606776    12.290199 
   14700     309.2407    245.17577   -239.29631   -183011.04    654.07996   -182356.96   0.45606776    18.837327 
   14800    309.61308    246.05166   -286.33051   -183010.91    656.41665   -182354.49   0.45606776     16.90075 
   14900    307.65451    244.53969   -250.76732   -183010.94    652.38303   -182358.56   0.45606776    20.509333 
   15000    308.09366    245.21202   -210.69338   -183014.22    654.17666   -182360.04   0.45606776    22.373849 
   15100    308.38108    244.29455   -364.75999   -183009.84    651.72902   -182358.11   0.45606776    20.662891 
   15200    308.48466    246.13666   -181.17081   -183013.07    656.64342   -182356.42   0.45606776    17.887181 
   15300     311.1383    245.87023   -321.80756   -183012.09    655.93263   -182356.15   0.45606776    18.811804 
   15400    309.98817    246.42814   -309.10285   -183013.61    657.42102   -182356.18   0.45606776    18.564557 
   15500    305.96626    244.26378   -282.23696   -183006.41    651.64694   -182354.77   0.45606776    17.021626 
   15600    306.60436    246.31296   -226.69606   -183006.98    657.11375   -182349.86   0.45606776     12.15957 
   15700    305.66971    244.70642   -181.09968   -183004.19    652.82782   -182351.36   0.45606776     13.05883 
   15800     309.3629    246.67859   -293.55669   -183010.36    658.08918   -182352.27   0.45606776    13.663613 
   15900    306.55039    244.85814   -477.82547   -183008.52    653.23258   -182355.29   0.45606776    17.850649 
   16000    308.86758    247.81252   -236.60188   -183010.98    661.11428   -182349.86   0.45606776    12.705944 
   16100    308.87034    245.75942   -512.79324   -183012.37      655.637   -182356.74   0.45606776    19.926628 
   16200    307.48295    244.84617    22.104985   -183012.15    653.20065   -182358.95   0.45606776    20.914167 
   16300    305.98282    244.09794   -296.97346   -183005.71    651.20453   -182354.51   0.45606776    17.683652 
   16400    307.87872    243.88202   -363.08531   -183009.55     650.6285   -182358.92   0.45606776    20.789898 
   16500    307.26054    243.19714    -425.8658   -183010.56    648.80138   -182361.76   0.45606776    23.575036 
   16600    307.59495    244.63881   -475.28798   -183013.66    652.64745   -182361.01   0.45606776    23.259963 
   16700    307.27817    244.71167   -350.17467   -183011.35    652.84182   -182358.51   0.45606776    21.040084 
   16800    304.69628    244.20794   -418.66181   -183003.78    651.49796   -182352.28   0.45606776    15.300425 
   16900    305.14299    244.01272   -388.89334   -183005.63    650.97715   -182354.65   0.45606776    17.162293 
   17000    308.05927    245.88227   -434.71867   -183010.81    655.96476   -182354.85   0.45606776    16.953357 
   17100    308.01439    245.87751   -363.89174   -183007.68    655.95205   -182351.73   0.45606776    15.131965 
   17200    310.48869    246.30424   -72.122321   -183009.88    657.09048   -182352.79   0.45606776    15.930458 
   17300    308.80343    245.01289   -448.60902      -183010    653.64543   -182356.36   0.45606776    18.678383 
   17400    308.12832    245.69834   -164.98468   -183012.41    655.47407   -182356.93   0.45606776    19.932861 
   17500    308.37658    244.70556   -290.69156   -183009.91    652.82553   -182357.09   0.45606776    20.665961 
   17600    311.37716    246.24255   -349.53137   -183013.29    656.92591   -182356.36   0.45606776     20.27843 
   17700    309.52707    245.77939   -124.30736   -183012.28    655.69029   -182356.59   0.45606776    20.685078 
   17800    309.45944    245.20794   -377.08662   -183014.42    654.16577   -182360.25   0.45606776    23.796592 
   17900    308.41877    246.61744   -408.86674   -183011.64    657.92605   -182353.71   0.45606776    18.093133 
   18000    306.97351    244.55251   -291.89865   -183005.28    652.41722   -182352.86   0.45606776    17.154169 
   18100     309.8498    246.94979   -394.39343    -183010.1    658.81269   -182351.28   0.45606776    15.653416 
   18200    307.57727    244.26031   -212.40079   -183006.23    651.63769   -182354.59   0.45606776    20.341791 
   18300    310.08771    245.62028    -413.4579   -183007.82    655.26583   -182352.55   0.45606776    18.535702 
   18400    306.93918    245.38995   -209.80336   -183006.68    654.65134   -182352.02   0.45606776    16.830037 
   18500    307.59127    245.64754   -157.84007   -183004.62    655.33854   -182349.28   0.45606776    14.345132 
   18600    309.27803    246.05478   -253.79317   -183008.44    656.42499   -182352.02   0.45606776    17.843011 
   18700    310.07093    248.07758   -403.90178   -183011.17    661.82141   -182349.35   0.45606776    15.928563 
   18800    309.43315    246.87355   -396.62658   -183005.75    658.60929   -182347.14   0.45606776    13.166761 
   18900     308.2663    246.69482   -258.04504    -183005.3    658.13248   -182347.16   0.45606776    13.114714 
   19000     310.1564    247.37008   -62.691883   -183010.05    659.93392   -182350.11   0.45606776    15.380205 
   19100    311.11195    246.63774   -369.84964   -183010.12     657.9802   -182352.14   0.45606776    18.018122 
   19200    311.02511    246.78611   -491.95657   -183011.28    658.37601    -182352.9   0.45606776    19.422655 
   19300    308.94076    245.64469   -345.57857   -183010.96    655.33095   -182355.63   0.45606776    22.017503 
   19400    309.68116     246.5945   -402.34867   -183011.27    657.86484   -182353.41   0.45606776    19.288195 
   19500    306.11711     244.4626   -335.69548   -183005.38    652.17735    -182353.2   0.45606776    18.954859 
   19600    306.44475    243.91066   -394.78029    -182999.1    650.70489    -182348.4   0.45606776    14.632295 
   19700    308.74758     246.5699    -421.5127   -183009.31    657.79922   -182351.51   0.45606776    18.877743 
   19800    310.46105    247.32057   -451.65174   -183008.46    659.80186   -182348.66   0.45606776    16.892744 
   19900    311.28021    247.67865   -295.44696   -183010.62    660.75713   -182349.87   0.45606776    16.689005 
   20000    308.84829    245.41287   -294.90409   -183008.98     654.7125   -182354.26   0.45606776    20.314842 
   20100    311.89921    247.66512   -277.71715   -183015.19    660.72103   -182354.47   0.45606776    22.145329 
   20200    311.58457    248.40715   -213.78283   -183012.75    662.70062   -182350.04   0.45606776    19.516177 
   20300    311.12587    248.51357   -239.21057   -183011.92    662.98454   -182348.93   0.45606776    18.059983 
   20400    312.63669     247.4506   -238.54349   -183015.13    660.14873   -182354.98   0.45606776    22.618277 
   20500    310.88131    246.92225   -274.11363   -183010.83    658.73921   -182352.09   0.45606776     19.38071 
   20600    310.99263    246.43017   -134.00999   -183009.24    657.42644   -182351.81   0.45606776    20.853532 
   20700    308.14842    246.68478    -79.41473   -183006.74    658.10568   -182348.63   0.45606776    18.030618 
   20800    309.63855    244.69099   -456.11554   -183004.79    652.78665      -182352   0.45606776    20.255123 
   20900    308.26835    245.30496   -534.61595    -183005.8    654.42459   -182351.38   0.45606776     19.13741 
   21000    309.50879    245.94986   -150.30405   -183005.29    656.14507   -182349.14   0.45606776    17.294057 
   21100    310.08698    246.91145    -357.5317   -183007.44     658.7104   -182348.73   0.45606776    16.595381 
   21200    311.00061    246.80521   -376.96542   -183013.12    658.42696   -182354.69   0.45606776    22.229859 
   21300    306.56148    244.12861   -250.87372    -183003.6    651.28633   -182352.31   0.45606776    21.972177 
   21400    308.21498    244.72797   -244.25307   -183005.57    652.88531   -182352.69   0.45606776    21.268931 
   21500    308.73519    244.08952    -395.3176   -183008.89    651.18204   -182357.71   0.45606776    26.559853 
   21600    308.97985    244.64402   -257.47111   -183009.02    652.66135   -182356.36   0.45606776    25.282475 
   21700     309.6509    244.23126   -424.33995    -183007.5     651.5602   -182355.94   0.45606776    25.802816 
   21800    307.82269    244.51737   -468.97748   -183007.41    652.32348   -182355.08   0.45606776    25.407459 
   21900     308.7759    244.88561   -388.07696   -183007.04    653.30587   -182353.73   0.45606776    22.696063 
   22000    310.62091    247.02842   -274.63666   -183010.24    659.02245   -182351.22   0.45606776    20.299038 
   22100    308.97768     245.0507   -346.51971   -183006.62     653.7463   -182352.87   0.45606776    21.476842 
   22200    308.39161    245.15559   -310.49205   -183002.45    654.02612   -182348.42   0.45606776    19.910418 
   22300    310.87454    248.34698   -174.73613   -183012.65     662.5401   -182350.11   0.45606776    20.838199 
   22400    308.79847    245.93812   -324.63066    -183007.9    656.11374   -182351.79   0.45606776    20.775887 
   22500    308.35271    244.66389   -254.22026   -183008.85    652.71436   -182356.14   0.45606776    24.540122 
   22600    304.83027    243.53399    -336.8748   -183000.22        649.7   -182350.52   0.45606776    19.996524 
   22700    310.24375    247.67462   -293.44491   -183007.74    660.74637   -182346.99   0.45606776    17.657235 
   22800     308.6996     246.1004   -181.66963   -183005.99    656.54667   -182349.44   0.45606776     19.65511 
   22900    312.50329    248.23484   -126.20553   -183008.15    662.24094   -182345.91   0.45606776      16.2467 
   23000    309.18824    246.20315    -365.0136   -183007.44     656.8208   -182350.62   0.45606776    20.884093 
   23100    310.34674    246.70494   -256.41337   -183009.11    658.15947   -182350.95   0.45606776    21.080464 
   23200    309.13683    245.94923   -294.75155   -183005.27    656.14339   -182349.13   0.45606776    19.651701 
   23300    309.33592    245.87311   -371.50356   -183005.93    655.94032   -182349.99   0.45606776    21.489249 
   23400    310.05851    246.32449   -310.35714   -183009.28     657.1445   -182352.13   0.45606776    21.756877 
   23500    312.87667    248.00994   -353.67302   -183012.76    661.64096   -182351.12   0.45606776    21.494693 
   23600    307.98167    245.94067   -202.35685   -183002.02    656.12056    -182345.9   0.45606776    18.351558 
   23700    308.96662    246.32079   -115.05839   -183006.45    657.13463   -182349.31   0.45606776    21.177901 
   23800    309.84573    246.40791   -222.80828   -183004.24    657.36705   -182346.87   0.45606776    17.171073 
   23900    310.64732    247.13811   -376.09018   -183006.82    659.31508    -182347.5   0.45606776    19.014656 
   24000     310.1332    246.95208   -305.23564   -183006.54    658.81878   -182347.72   0.45606776     19.43326 
   24100    308.12003       245.22   -319.85579   -183000.62    654.19794   -182346.42   0.45606776    18.767154 
   24200    309.01082    246.95485   -324.24623    -183001.8    658.82618   -182342.97   0.45606776    15.653094 
   24300    308.30043    245.58025   -383.06094   -183006.61    655.15902   -182351.45   0.45606776    22.581401 
   24400    306.20204    244.53322   -358.76587   -183003.63    652.36575   -182351.27   0.45606776     22.79167 
   24500    306.87886    244.19184   -367.34316   -183002.01    651.45503   -182350.56   0.45606776    22.644048 
   24600    308.09579    245.03085   -276.42495   -183007.67    653.69334   -182353.98   0.45606776    25.655845 
   24700    309.15342    246.42561   -39.335471   -183008.06    657.41428   -182350.65   0.45606776    22.500077 
   24800    308.16631    245.18798   -367.57032   -183008.82    654.11252   -182354.71   0.45606776    26.545157 
   24900    308.66593    244.66417   -264.65098   -183005.93    652.71509   -182353.22   0.45606776    24.686882 
   25000    310.52734     246.7114   -378.13185   -183011.24    658.17671   -182353.06   0.45606776    25.530906 
   25100    306.45657    244.52118   -166.89275   -183003.98    652.33365   -182351.65   0.45606776    24.594446 
   25200    309.36834    245.98848   -251.53386   -183005.69     656.2481   -182349.45   0.45606776    21.860774 
   25300    310.32808    245.69355    -379.9468   -183007.64     655.4613   -182352.18   0.45606776    23.958034 
   25400    309.24487    246.23674   -302.05272   -183007.75     656.9104   -182350.84   0.45606776    23.784283 
   25500    310.99393    248.04063   -271.46916   -183007.65    661.72281   -182345.92   0.45606776    19.360638 
   25600    311.37679    248.87574   -395.58898   -183007.65    663.95073    -182343.7   0.45606776    16.355955 
   25700    308.82962    246.24722   -428.92714   -183005.77    656.93837   -182348.84   0.45606776    20.777017 
   25800    307.84766    245.16582    -390.5078   -183001.64    654.05341   -182347.59   0.45606776    19.271024 
   25900    309.67906    246.91282   -285.22222   -183004.48    658.71405   -182345.77   0.45606776    19.378721 
   26000    307.89666    246.57184   -267.60696   -183003.38    657.80438   -182345.58   0.45606776    18.892869 
   26100    311.61696    248.29608   -236.76756   -183010.38     662.4043   -182347.97   0.45606776    20.425518 
   26200    313.42687    248.83899   -185.44706   -183011.43    663.85269   -182347.58   0.45606776    20.390603 
   26300    311.81512    248.72102    -430.8544   -183008.84    663.53797    -182345.3   0.45606776    19.104842 
   26400    311.89677    247.24155   -295.15043   -183004.22    659.59104   -182344.62   0.45606776    18.056992 
   26500    309.96124    244.97531   -294.73601      -183003    653.54516   -182349.46   0.45606776    23.280474 
   26600    310.62486     245.8413   -72.980913   -183003.27    655.85545   -182347.42   0.45606776    21.290683 
   26700    308.84242    245.35875   -344.43704   -183001.42    654.56812   -182346.86   0.45606776    22.053817 
   26800    310.04056    246.97197   -272.06204   -183001.52    658.87187   -182342.65   0.45606776    17.690467 
   26900    310.93152    247.64144   -350.46091    -183005.4    660.65785   -182344.74   0.45606776    19.264208 
   27000    310.34902     246.0143   -417.48177   -183007.36    656.31699   -182351.04   0.45606776    25.300962 
   27100    308.11642    244.52046   -251.76175   -183006.34    652.33171   -182354.01   0.45606776    29.031092 
   27200    309.93002    245.45894   -335.42452   -183005.64    654.83538    -182350.8   0.45606776    26.096345 
   27300    310.61347    247.18376   -372.88504   -183009.94    659.43686    -182350.5   0.45606776    25.649918 
   27400    308.83371    246.27426   -275.68413   -183001.83    657.01049   -182344.82   0.45606776    21.099791 
   27500    314.05669    249.01064   -263.45355   -183009.72    664.31062   -182345.41   0.45606776    20.600806 
   27600    310.97543    246.74916    -122.2687   -183007.17    658.27745   -182348.89   0.45606776    24.120219 
   27700    310.31004    245.95189   -127.49568   -183007.46    656.15048   -182351.31   0.45606776    28.315012 
   27800    310.52169    246.56521   -212.76839   -183009.73    657.78669   -182351.95   0.45606776    28.299824 
   27900    309.84068    245.84359   -329.71176   -183006.86    655.86156      -182351   0.45606776    27.623182 
   28000    310.37236    247.10738   -214.73107   -183006.09     659.2331   -182346.86   0.45606776    22.957395 
   28100    309.98175    248.11915   -318.98229   -183008.01     661.9323   -182346.07   0.45606776    23.299685 
   28200    310.58424     247.4915    -248.0437   -183004.89    660.25785   -182344.63   0.45606776    20.831378 
   28300    312.21176    247.43168   -225.37314   -183008.84    660.09828   -182348.74   0.45606776    25.406991 
   28400    308.07422    246.42258   -253.87923   -183002.48    657.40619   -182345.07   0.45606776    22.662412 
   28500    309.74988    246.59896   -284.94955   -183007.08    657.87675    -182349.2   0.45606776    26.176466 
   28600    310.97479    248.29591   -351.31254    -183009.7    662.40387    -182347.3   0.45606776    24.272959 
   28700    312.49189    247.82664   -377.68398   -183014.87    661.15194   -182353.72   0.45606776    30.517144 
   28800    311.92574    246.01551   -424.20245   -183014.14    656.32021   -182357.82   0.45606776     35.41144 
   28900    306.49752    243.01905   -317.48612   -183006.47    648.32624   -182358.15   0.45606776     35.37203 
   29000    309.10949    244.45299   -210.66671   -183008.91    652.15173   -182356.76   0.45606776    33.317816 
   29100    309.38444    244.84509   -120.12401      -183004    653.19776    -182350.8   0.45606776    27.941065 
   29200    312.06653    246.27848   -211.20932    -183011.5    657.02175   -182354.47   0.45606776    31.397141 
   29300    310.29397    245.28068   -272.55548   -183013.04    654.35983   -182358.68   0.45606776    35.679532 
   29400    311.82922    246.80329   -448.52171   -183013.86    658.42186   -182355.43   0.45606776    31.670924 
   29500    308.56875    245.63837   -270.38742   -183012.13    655.31409   -182356.82   0.45606776     33.15784 
   29600    308.48312    246.52998   -170.36589   -183008.19     657.6927    -182350.5   0.45606776     29.72028 
   29700    312.44073    246.99875    -305.3895   -183008.06     658.9433   -182349.12   0.45606776    26.835755 
   29800    312.40413    247.67833   -274.87698   -183010.56    660.75629    -182349.8   0.45606776    28.801482 
   29900     309.7426    245.24478    -358.8524   -183008.11    654.26405   -182353.85   0.45606776    32.742089 
   30000    311.11404    246.25178   -394.15098   -183008.06    656.95052   -182351.11   0.45606776    30.305331 
   30100     309.9955    244.86848      -380.13   -183008.46    653.26017    -182355.2   0.45606776     33.98831 
   30200    311.57507    246.53059   -81.347244   -183009.49    657.69435   -182351.79   0.45606776    30.401186 
   30300    314.01946    247.16766   -296.55698   -183010.26    659.39392   -182350.86   0.45606776    28.791117 
   30400    310.70862    245.45437   -233.50579   -183005.32     654.8232    -182350.5   0.45606776    29.008169 
   30500    310.24595     247.1493   -292.76952   -183005.65    659.34494   -182346.31   0.45606776    27.131729 
   30600    308.57987    245.16789   -453.86713   -182999.34    654.05892   -182345.28   0.45606776    25.574311 
   30700    307.76773    245.79237   -248.78711    -183001.8    655.72491   -182346.08   0.45606776    24.790401 
   30800    308.97251    246.78507   -317.31082   -183005.92    658.37325   -182347.54   0.45606776    27.198117 
   30900    312.41789    248.56867   -349.10279   -183011.39    663.13152   -182348.25   0.45606776    28.410431 
   31000    312.50564    246.54237   -124.13808   -183003.19    657.72578   -182345.46   0.45606776    26.226482 
   31100    310.23172    246.82195   -351.35027   -183004.47    658.47163      -182346   0.45606776    26.798179 
   31200    310.03691    246.56016   -342.01243   -183002.09    657.77322   -182344.32   0.45606776     25.33918 
   31300    310.89622    247.01488   -464.66387   -183006.74    658.98634   -182347.75   0.45606776     28.94371 
   31400    310.64702    245.24073     -319.617    -183006.7    654.25325   -182352.44   0.45606776    32.853676 
   31500    309.76779    245.89434   -391.23412   -183006.57    655.99696   -182350.58   0.45606776    31.718759 
   31600    309.82578    246.67545   -306.87793   -183005.92    658.08081   -182347.84   0.45606776    29.497608 
   31700    312.65838    247.55957   -333.97399   -183007.88    660.43944   -182347.44   0.45606776    29.433973 
   31800    308.83447    245.86631   -189.96532   -183005.06    655.92219   -182349.14   0.45606776    30.216261 
   31900    310.17199    246.94125   -355.83979   -183001.59    658.78991    -182342.8   0.45606776    23.896763 
   32000     306.7109     245.5443   -181.47037   -182997.36    655.06312    -182342.3   0.45606776    24.647463 
   32100    311.36769    248.08087   -344.19943   -183002.83    661.83017      -182341   0.45606776    23.979726 
   32200      311.742    248.24805   -205.90044   -183007.42    662.27617   -182345.14   0.45606776    26.086927 
   32300    311.75039    247.62457    -161.7166   -183007.27    660.61286   -182346.66   0.45606776    27.756403 
   32400    311.74741    247.84017   -316.01878   -183008.34    661.18803   -182347.15   0.45606776    28.947773 
   32500    312.01981    247.81385   -221.18523   -183009.95    661.11781   -182348.83   0.45606776    31.076178 
   32600    308.75876    246.39577   -176.32946   -183005.65    657.33466   -182348.32   0.45606776    29.952243 
   32700    306.81875    245.97037   -202.63907   -183003.88     656.1998   -182347.68   0.45606776     29.47527 
   32800    307.31698    244.09011   -311.28713   -183002.64    651.18362   -182351.46   0.45606776    32.551978 
   32900    309.94778    245.73356   -377.51627   -183003.64    655.56803   -182348.07   0.45606776    30.432396 
   33000    311.42278    247.83229   -317.36381   -183007.42    661.16701   -182346.25   0.45606776     28.95327 
   33100    314.42736    250.05694   -447.51294   -183009.66    667.10193   -182342.56   0.45606776    24.595171 
   33200     310.9824    247.74295   -318.33073   -183008.35    660.92867   -182347.43   0.45606776    28.677601 
   33300    310.19508    246.86485   -299.17379   -183006.41    658.58608   -182347.83   0.45606776    29.354503 
   33400    309.31606    245.90136   -359.46768   -183001.13    656.01569   -182345.11   0.45606776    27.068047 
   33500     307.0039    246.17653   -105.95462   -183000.92    656.74977   -182344.17   0.45606776    26.769145 
   33600    310.63146    247.26354   -339.06759   -183007.11    659.64971   -182347.46   0.45606776    30.316818 
   33700    311.95122    247.83939   -315.00632   -183005.35    661.18596   -182344.17   0.45606776    27.156645 
   33800    310.35416    247.27818   -415.85045    -183006.2    659.68876   -182346.51   0.45606776    28.374244 
   33900    309.55403    246.73642   -96.467533   -183006.79    658.24345   -182348.54   0.45606776    29.833545 
   34000    309.86405    248.00578   -302.74054   -183000.45    661.62986   -182338.82   0.45606776    21.016531 
   34100    312.74849    249.08993   -369.17542    -183006.9    664.52215   -182342.38   0.45606776    26.538343 
   34200     310.1389     247.4277   -278.61781   -183006.43    660.08765   -182346.34   0.45606776    29.818956 
   34300    311.61002    246.86673   -378.89661   -183006.31    658.59108   -182347.72   0.45606776    30.263035 
   34400    312.12928    247.45598   -418.59845   -183006.42    660.16311   -182346.26   0.45606776    28.447519 
   34500    313.19057    248.03339   -335.29263   -183009.31    661.70351   -182347.61   0.45606776    30.979317 
   34600     310.5208     246.7882   -305.96984   -183005.49    658.38158   -182347.11   0.45606776    30.591151 
   34700    311.07905    247.66524   -189.92736   -183003.44    660.72136   -182342.72   0.45606776    25.112188 
   34800    310.92638    248.21932   -251.03056   -183006.12    662.19954   -182343.92   0.45606776      28.2609 
   34900    313.32634    247.82542   -364.24601   -183008.37    661.14868   -182347.23   0.45606776    31.072872 
   35000    309.14935    244.22191   -239.06606   -183003.75    651.53525   -182352.22   0.45606776    36.079028 
   35100    311.65457    247.66938   -352.83139   -183009.35    660.73241   -182348.61   0.45606776    32.432743 
   35200    313.28114    247.24919   -311.67538   -183005.13    659.61142   -182345.52   0.45606776    28.555807 
   35300    309.15074    245.85048   -170.24003   -183003.39    655.87995   -182347.51   0.45606776    31.812428 
   35400    308.93657    245.95601   -252.72249   -183004.31    656.16148   -182348.15   0.45606776    32.803066 
   35500    312.18644    246.61222   -390.42356   -183005.33    657.91212   -182347.42   0.45606776    33.069848 
   35600    312.22273    248.41609   -459.53983   -183007.68    662.72449   -182344.96   0.45606776     30.05211 
   35700    314.12349    248.49126   -497.02156   -183007.58    662.92501   -182344.66   0.45606776    29.621306 
   35800    310.98688    247.18235   -405.51247   -183002.59     659.4331   -182343.16   0.45606776    28.751217 
   35900    311.22992    247.68653   -234.29099   -183004.21    660.77815   -182343.43   0.45606776    29.218025 
   36000     309.1852    245.82663   -318.75465   -182999.33    655.81631   -182343.52   0.45606776    28.850599 
   36100    308.40665    245.57292    -427.9109   -183006.33    655.13947   -182351.19   0.45606776    36.628315 
   36200    312.64027    246.48902   -441.02883   -183004.23    657.58344   -182346.65   0.45606776    32.855406 
   36300    309.71023     246.7386   -290.69742    -182999.7    658.24928   -182341.45   0.45606776    26.992307 
   36400    313.81747     249.1171   -202.27102   -183006.26    664.59464   -182341.66   0.45606776     27.35612 
   36500    312.50317    250.29559   -155.02569   -183008.04    667.73861    -182340.3   0.45606776    27.008345 
   36600    310.83255    247.58464   -338.76251   -183005.39    660.50632   -182344.88   0.45606776    31.705837 
   36700    314.12094    249.69715   -147.84708   -183008.17    666.14209   -182342.03   0.45606776    27.686275 
   36800    312.17407    248.85243   -232.94997   -183006.08    663.88853   -182342.19   0.45606776    28.730137 
   36900    314.54583    250.66375   -166.36896   -183007.77    668.72079   -182339.05   0.45606776    25.629671 
   37000    310.76054    247.82716   -194.22937   -183001.91    661.15333   -182340.76   0.45606776    28.530955 
   37100    313.82917    249.70529   -351.38981   -183006.01    666.16381   -182339.85   0.45606776    26.515444 
   37200    315.07387    248.41305   -429.12627   -183006.03    662.71636   -182343.31   0.45606776     29.03718 
   37300    310.66519    245.44908   -430.96158   -183002.02     654.8091   -182347.21   0.45606776    34.667892 
   37400    311.78596    246.79599    -400.2792   -183001.59    658.40238   -182343.19   0.45606776    30.677931 
   37500    309.92981    245.60559    -363.9818   -182999.14    655.22663   -182343.92   0.45606776    31.476084 
   37600    313.45596    249.01481     -325.146   -183004.02    664.32175    -182339.7   0.45606776    26.626622 
   37700     310.5258    246.14033   -97.969713   -183001.44    656.65322   -182344.79   0.45606776    31.316108 
   37800    311.40705    247.68756   -287.60183    -183000.9     660.7809   -182340.12   0.45606776    28.215756 
   37900    311.13957    247.66788   -140.71202   -183003.48     660.7284   -182342.75   0.45606776    31.307808 
   38000    313.64894    248.31099    -375.6489   -183005.53    662.44409   -182343.08   0.45606776     30.08014 
   38100    310.96788    247.01806   -194.45249   -183001.66    658.99482   -182342.67   0.45606776    29.227901 
   38200    311.44655    247.09234    -224.8735   -183001.72    659.19299   -182342.53   0.45606776    30.095618 
   38300    311.20061    248.45546   -163.10668   -183000.15     662.8295   -182337.32   0.45606776    24.979638 
   38400    313.57439    249.08218   -402.55722   -183003.73    664.50148   -182339.23   0.45606776    26.966815 
   38500    316.70542     249.2895   -286.60275   -183003.99    665.05457   -182338.94   0.45606776    26.010752 
   38600    312.08063    247.05264   -234.38006   -183000.41    659.08707   -182341.33   0.45606776    28.051308 
   38700    311.94767    246.77167   -343.41689   -182997.43    658.33748   -182339.09   0.45606776    27.804169 
   38800    314.99136    250.06812   -378.38173   -183004.53    667.13178    -182337.4   0.45606776    27.388896 
   38900     315.5788    250.90615   -294.63156   -183005.22    669.36746   -182335.85   0.45606776    24.724788 
   39000    313.57923    249.89572    -325.6633   -183001.49    666.67184   -182334.82   0.45606776    22.478417 
   39100     313.9857    248.29758   -364.96347    -183003.2    662.40832   -182340.79   0.45606776    29.150072 
   39200    311.81834    247.81998   -234.62291   -183002.92    661.13417   -182341.78   0.45606776    31.976742 
   39300    312.25759    248.54206   -185.34705   -183003.03    663.06055   -182339.97   0.45606776    30.678531 
   39400    313.02993    247.51605   -287.33978   -183005.06    660.32335   -182344.73   0.45606776    34.361196 
   39500    313.42094    247.92266   -399.47762   -183006.51    661.40812    -182345.1   0.45606776    33.077106 
   39600    314.85453    249.34323   -370.04661   -183002.36    665.19789   -182337.16   0.45606776    26.670868 
   39700    311.87594    248.42844   -373.16631   -182997.72    662.75743   -182334.96   0.45606776    26.173069 
   39800    311.10905    248.40802   -417.55873   -182996.07    662.70295   -182333.37   0.45606776    24.547893 
   39900    313.06751    248.68398   -438.86467   -182999.08    663.43917   -182335.64   0.45606776     27.16972 
   40000    311.49191    247.35954   -315.12446    -183002.7    659.90581   -182342.79   0.45606776    32.401831 
   40100    313.20025    246.29602   -511.41562   -183002.91    657.06855   -182345.84   0.45606776    34.780702 
   40200    311.59917    247.00347    -435.5228   -183001.52    658.95588   -182342.56   0.45606776    31.628565 
   40300    315.83709    251.06694   -463.09343   -183005.72    669.79641   -182335.92   0.45606776    27.327031 
   40400    313.56792    247.12682   -336.31805   -183002.17    659.28497   -182342.89   0.45606776    33.506481 
   40500    311.43002    245.91534   -518.52882   -183004.45    656.05297    -182348.4   0.45606776    37.277774 
   40600    313.63711    246.98921   -377.68348   -183002.78    658.91784   -182343.86   0.45606776    34.175036 
   40700    312.81719    249.03646    -265.3089    -183004.1     664.3795   -182339.73   0.45606776    31.270765 
   40800    310.76295    248.99727   -335.42092   -183002.49    664.27496   -182338.21   0.45606776     28.54881 
   40900    314.89714    248.91686   -322.48103    -183005.2    664.06044   -182341.14   0.45606776     31.42635 
   41000    312.85853    247.57412   -239.37947   -183002.08    660.47828    -182341.6   0.45606776    33.314227 
   41100    312.32784    247.50228   -350.90635   -183001.63    660.28661   -182341.34   0.45606776     34.30338 
   41200    310.49574    246.10875   -217.00504   -182995.21    656.56895   -182338.64   0.45606776    30.614107 
   41300    308.99431    246.80531    -243.9778   -182996.79    658.42724   -182338.36   0.45606776    29.558037 
   41400    309.11092    245.84194   -295.15044   -183000.21    655.85716   -182344.35   0.45606776    35.256325 
   41500     314.6043    249.81881   -453.73231   -183008.05    666.46665   -182341.58   0.45606776    32.618697 
   41600    311.53133    247.20019    -189.2658    -183001.5    659.48069   -182342.02   0.45606776    33.346299 
   41700    315.00821    248.32602   -329.14237    -183004.4    662.48419   -182341.91   0.45606776    33.608973 
   41800    312.19428    246.47251   -314.99646   -183002.05     657.5394   -182344.51   0.45606776    35.804775 
   41900    310.84463    245.43514   -235.69549   -183002.79    654.77191   -182348.01   0.45606776    39.669438 
   42000    312.88218    247.86363   -273.82063   -183005.66    661.25063   -182344.41   0.45606776    36.913988 
   42100    311.88119    246.41636   -223.05942   -183003.99    657.38959    -182346.6   0.45606776    39.485772 
   42200    314.00617    249.43343   -246.62257   -183004.78    665.43854   -182339.35   0.45606776    32.332408 
   42300    309.74129    246.95843   -190.66205   -182997.62    658.83573   -182338.78   0.45606776    31.670733 
   42400    309.39794     245.5438   -273.37651   -182994.54    655.06179   -182339.48   0.45606776    30.592683 
   42500    311.44839    245.91448   -304.49367   -182999.09    656.05067   -182343.04   0.45606776    33.921535 
   42600    314.28339    248.85282   -287.51348   -183004.73     663.8896   -182340.84   0.45606776    33.805286 
   42700    313.95487    248.21565   -322.07201    -183004.1    662.18976   -182341.91   0.45606776     35.48417 
   42800    313.12203    249.10384    -359.6366   -183000.28    664.55926   -182335.72   0.45606776    29.041601 
   42900    311.21816    246.37482   -216.25951   -183002.15    657.27878   -182344.87   0.45606776    36.290396 
   43000    310.80687     244.8038   -197.75277   -182997.66    653.08761   -182344.57   0.45606776    35.947462 
   43100    313.18007     248.5932   -382.05194   -183004.09    663.19696   -182340.89   0.45606776    34.656161 
   43200    312.12036     247.7691   -253.36053   -183000.08    660.99843   -182339.08   0.45606776    33.055378 
   43300    312.28965     248.5173   -307.05215   -182998.89    662.99449    -182335.9   0.45606776    29.295946 
   43400    313.23067    248.24289   -223.84019   -182997.99    662.26242   -182335.72   0.45606776    27.815653 
   43500    316.29005    251.12214   -149.98496   -183008.96    669.94367   -182339.02   0.45606776    32.402808 
   43600    315.37787    249.82082   -405.67064   -183006.35    666.47202   -182339.88   0.45606776    34.236475 
   43700     314.5868     249.7339   -324.59401   -183004.68    666.24012   -182338.44   0.45606776    32.488484 
   43800    312.57616    248.23677   -187.20619   -183000.32    662.24609   -182338.08   0.45606776     31.72312 
   43900    311.80316    248.65553   -379.19962    -183001.3    663.36324   -182337.94   0.45606776    30.770708 
   44000    313.26762    247.88189   -275.58478   -183000.46    661.29934   -182339.16   0.45606776    32.368001 
   44100    316.48568    250.63626   -440.47094   -183007.22    668.64745   -182338.57   0.45606776      33.0421 
   44200    313.97305    249.71225   -328.50854   -183002.83    666.18237   -182336.65   0.45606776    32.689986 
   44300    311.81128    247.37467   -357.25386   -182998.65    659.94619   -182338.71   0.45606776    33.007168 
   44400    310.49055    246.57325    -185.9536      -182999    657.80814   -182341.19   0.45606776    35.448976 
   44500    311.75365    247.51437   -95.622738   -183000.24    660.31886   -182339.92   0.45606776    33.947034 
   44600    312.26863    246.40645   -293.38932   -183003.46    657.36317   -182346.09   0.45606776    39.713293 
   44700    316.19202    250.56651   -422.77296   -183008.92    668.46136   -182340.46   0.45606776    34.277408 
   44800    315.90071     250.3716   -330.03815   -183004.22    667.94139   -182336.28   0.45606776    31.325727 
   44900    312.01387    246.86792   -304.11849   -182995.48    658.59426   -182336.88   0.45606776     31.67518 
   45000    310.04643    247.41484   -249.70417   -182996.57    660.05333   -182336.51   0.45606776    30.062359 
   45100    314.30991    249.44499   -190.34901   -182999.59    665.46937   -182334.12   0.45606776    27.683631 
   45200    312.33363    249.95533   -328.07434   -182998.95    666.83086   -182332.12   0.45606776    26.458268 
   45300    313.91271    249.37365   -362.57555   -182995.11    665.27905   -182329.83   0.45606776    25.820461 
   45400    313.45729    247.61278    -285.3865   -182996.11     660.5814   -182335.53   0.45606776    29.534443 
   45500    312.55105    249.70609   -385.03445   -182999.09    666.16593   -182332.93   0.45606776    27.123311 
   45600    310.57257    247.80442   -348.30601   -182995.43    661.09268   -182334.34   0.45606776    30.070791 
   45700    310.86839     247.1702   -294.47906   -182997.75     659.4007   -182338.35   0.45606776     34.81471 
   45800    311.77533    247.61364    -347.7348   -182998.36     660.5837   -182337.78   0.45606776    33.395146 
   45900    312.15263    247.48793   -534.41067   -182996.99    660.24832   -182336.75   0.45606776    30.924817 
   46000     315.3574     250.9186   -505.19459   -183001.75    669.40068   -182332.35   0.45606776    28.057134 
   46100     312.1909    248.67105   -368.60618   -182996.79    663.40467   -182333.39   0.45606776     30.09195 
   46200    309.47713    246.17763   -213.32115    -182991.8    656.75271   -182335.05   0.45606776    31.438925 
   46300    311.86718    248.07365   -166.46872   -182996.95    661.81093   -182335.14   0.45606776    31.273547 
   46400    310.87387    246.63948   -353.76046   -182994.24    657.98484   -182336.26   0.45606776    30.189391 
   46500    314.21691    249.10899   -355.85135   -182998.16    664.57299   -182333.59   0.45606776    30.622055 
   46600    316.50142     250.8159   -33.859333   -183002.96    669.12668   -182333.84   0.45606776     31.65396 
   46700    315.89821    249.11512     -295.068   -183001.36    664.58935   -182336.77   0.45606776    31.469663 
   46800    313.98037    248.26413   -290.39204   -183000.91    662.31909    -182338.6   0.45606776    33.517057 
   46900    317.64505    250.42028    -368.9854   -183004.76    668.07127   -182336.69   0.45606776    33.637237 
   47000    313.33025    248.18874   -153.17663   -182998.75    662.11796   -182336.63   0.45606776    34.923494 
   47100    316.26003    249.61513   -260.83012   -183003.36    665.92327   -182337.44   0.45606776    35.249097 
   47200    313.96654    247.34606   -432.75202    -183000.6    659.86985   -182340.73   0.45606776    37.174561 
   47300    312.84324    246.46767   -331.71977   -182999.69    657.52649   -182342.17   0.45606776    37.231817 
   47400    315.89914    248.60487   -211.04692    -183005.7     663.2281   -182342.47   0.45606776     38.55375 
   47500    311.83179    246.46507   -382.26784   -182999.05    657.51954   -182341.54   0.45606776    39.833537 
   47600    313.66851    248.64124   -348.91463    -183004.8    663.32513   -182341.47   0.45606776    38.217047 
   47700    311.66871    245.28698   -388.08372   -182993.12    654.37663   -182338.75   0.45606776    34.932318 
   47800    312.54881    246.99778   -320.64004   -182990.51    658.94071   -182331.57   0.45606776    28.747346 
   47900    310.16958    247.09159   -224.92602   -182992.24    659.19097   -182333.05   0.45606776     31.13011 
   48000    312.12524    249.89387   -278.06172   -182995.73    666.66689   -182329.06   0.45606776    27.947098 
   48100    314.78028    249.40962    -150.0359   -183000.71    665.37501   -182335.34   0.45606776    33.338937 
   48200    312.74063    248.64569   -264.92964   -183001.44    663.33702    -182338.1   0.45606776     36.28805 
   48300    313.24954    248.86225   -178.87652   -183000.28    663.91475   -182336.37   0.45606776       34.024 
   48400    313.54251    248.74288   -256.20403    -182998.4    663.59628   -182334.81   0.45606776    33.168767 
   48500    314.53116    249.51826   -336.71307   -183002.77    665.66485    -182337.1   0.45606776    36.946327 
   48600    312.07534     247.6437   -223.32919   -182997.05    660.66389   -182336.39   0.45606776    35.204654 
   48700    311.94156    246.97476     -130.581   -182998.71    658.87929   -182339.83   0.45606776    37.204811 
   48800    310.51525    247.88993   -503.53824   -182998.21    661.32079   -182336.89   0.45606776    34.903161 
   48900    316.76381    251.40659   -227.40364   -183009.47    670.70253   -182338.77   0.45606776    38.597603 
   49000    315.24532    250.18045   -315.25715   -183003.04    667.43145   -182335.61   0.45606776     35.38095 
   49100    310.98887    248.19689   -293.36275   -182998.01    662.13969   -182335.87   0.45606776    34.498603 
   49200    312.45039    247.40509   -404.24013   -182995.77    660.02734   -182335.74   0.45606776    33.670936 
   49300    314.89501     249.0648   -157.62619   -182999.28     664.4551   -182334.83   0.45606776    32.999207 
   49400    312.54348    247.57571   -278.89287   -183000.97    660.48252   -182340.49   0.45606776    39.100136 
   49500    315.52098    250.10539   -240.06054   -183005.67    667.23119   -182338.44   0.45606776    37.791447 
   49600    313.10686    247.58488   -308.58041   -182996.86    660.50698   -182336.35   0.45606776    34.980834 
   49700    313.60074    248.09023    -354.5021   -183000.24    661.85516   -182338.38   0.45606776    36.156937 
   49800    313.21713    248.00251   -208.29331   -183000.52    661.62112    -182338.9   0.45606776    38.227914 
   49900    314.41597    248.83783    -412.7522   -182998.11     663.8496   -182334.26   0.45606776     34.41257 
   50000     313.3311     247.6794   -227.94832   -182999.68    660.75913   -182338.92   0.45606776    38.228127 
   50100    312.40597    246.55944   -278.85986   -182996.31     657.7713   -182338.54   0.45606776    37.642055 
   50200    314.12046    247.97107   -173.83256   -183000.71    661.53727   -182339.18   0.45606776    37.172341 
   50300    313.94758    248.00954   -417.09141   -182999.71    661.63988   -182338.07   0.45606776    36.920938 
   50400    315.68335    249.00687   -356.92611   -183001.66    664.30055   -182337.36   0.45606776    37.636208 
   50500    313.89912    247.73216   -372.17933   -182998.82    660.89988   -182337.92   0.45606776    37.202135 
   50600     314.7263    249.44992   -292.10096    -183000.9    665.48254   -182335.42   0.45606776    36.079991 
   50700    314.10485    249.94581   -296.82064   -183000.61    666.80548    -182333.8   0.45606776     34.88514 
   50800     314.0181    249.68579    -468.6154    -183003.9    666.11178   -182337.79   0.45606776    38.743794 
   50900    311.86488    246.73646   -368.10201      -182994    658.24355   -182335.75   0.45606776    37.104716 
   51000    313.52427    247.25485   -361.67426   -182996.67    659.62652   -182337.05   0.45606776    37.887586 
   51100    312.59472    248.28948   -386.50806   -182996.29    662.38671    -182333.9   0.45606776    35.325811 
   51200    310.04581    246.95237   -309.60909   -182991.68    658.81957   -182332.86   0.45606776    33.835733 
   51300    312.14135    247.90044   -385.85751   -182996.93    661.34882   -182335.58   0.45606776    36.506591 
   51400    313.55737     248.3267   -341.88224   -182997.69      662.486   -182335.21   0.45606776    36.519014 
   51500    313.27398    248.77527   -416.60712   -182994.31    663.68269   -182330.63   0.45606776    31.923343 
   51600    315.30325    250.07512   -226.16842   -183001.17    667.15044   -182334.02   0.45606776    35.066016 
   51700    317.94655    252.50836   -177.61181   -183008.18    673.64184   -182334.54   0.45606776    35.578444 
   51800    317.64294     250.9976   -247.34177   -183003.04    669.61143   -182333.43   0.45606776    35.447649 
   51900    315.22957    249.94003   -383.45049   -182999.29    666.79004    -182332.5   0.45606776    34.862726 
   52000    318.81093    249.86038   -440.08776   -183004.55    666.57756   -182337.97   0.45606776    40.247883 
   52100    314.48188    248.85616   -341.04291    -183001.3     663.8985   -182337.41   0.45606776    39.325215 
   52200    315.79578    249.11289   -111.94083   -183000.29     664.5834    -182335.7   0.45606776    38.317697 
   52300    314.83903    248.28271   -326.63046   -183000.45    662.36865   -182338.08   0.45606776    41.276461 
   52400    312.90297    249.22696   -273.13693   -182996.31    664.88771   -182331.42   0.45606776    34.507417 
   52500    313.75394    249.29087   -237.35492   -182996.87    665.05823   -182331.81   0.45606776    33.893545 
   52600    314.93986    249.13017   -214.03359   -183000.41    664.62951   -182335.78   0.45606776     38.75089 
   52700    314.71292    248.66229    -244.4796   -183000.87    663.38129   -182337.49   0.45606776    39.661178 
   52800    315.03981    249.95944    -342.4667   -183004.74    666.84184    -182337.9   0.45606776    41.048759 
   52900    313.19096    248.15165   -300.19952   -183000.88      662.019   -182338.86   0.45606776    42.194005 
   53000    315.13704    248.84295   -320.97481   -183002.55    663.86325   -182338.69   0.45606776    41.024258 
   53100    315.12579    248.62917   -171.13813   -182999.06    663.29294   -182335.76   0.45606776    38.457458 
   53200    317.58572    250.61124   -302.88596   -183003.01     668.5807   -182334.43   0.45606776    38.198818 
   53300    310.51101    247.02544   -287.58951   -182993.13    659.01449   -182334.12   0.45606776     38.59454 
   53400    317.17815     249.3336   -350.50095   -183001.45    665.17222   -182336.28   0.45606776    39.619437 
   53500    313.01077    246.78494   -397.38438   -182994.36     658.3729   -182335.98   0.45606776    38.685502 
   53600    313.16223    247.85945   -283.87795   -182995.58    661.23948   -182334.34   0.45606776    37.465161 
   53700    314.74549    248.92029   -316.11107    -182994.8    664.06958   -182330.73   0.45606776    34.708202 
   53800    313.57804    250.07962   -318.25046   -182997.83    667.16245   -182330.67   0.45606776    34.497374 
   53900    314.54267     250.4514   -216.85193   -183001.79    668.15427   -182333.64   0.45606776    37.418219 
   54000    311.74337    247.15731   -80.951699   -182994.55    659.36631   -182335.18   0.45606776    39.480596 
   54100    314.78638    248.21196   -399.26784   -182999.66    662.17989   -182337.48   0.45606776     40.82254 
   54200    314.81265    249.89219   -326.46449   -182999.87    666.66241   -182333.21   0.45606776    37.629077 
   54300    318.06059    251.33781   -253.37478    -183001.9    670.51906   -182331.38   0.45606776    36.143992 
   54400      318.639    252.34538   -333.87037   -183002.84    673.20705   -182329.63   0.45606776    35.126653 
   54500    313.51968     249.2071   -414.85522   -182989.84    664.83475   -182325.01   0.45606776    29.504891 
   54600    313.95414    249.26527   -239.36411   -182992.39    664.98991    -182327.4   0.45606776    31.524822 
   54700    317.45234    252.53734   -45.321571    -183000.6    673.71915   -182326.88   0.45606776    31.996623 
   54800    317.44583    251.88291   -503.26848   -182999.39    671.97326   -182327.41   0.45606776    33.070266 
   54900    314.79661    250.66307   -218.99023   -182995.69    668.71897   -182326.97   0.45606776    31.010731 
   55000    312.43708    249.10777   -421.77168    -182992.7    664.56974   -182328.13   0.45606776    33.511718 
   55100    313.63051     250.2804    -398.7741   -182992.45    667.69809   -182324.75   0.45606776    31.177729 
   55200    315.37743    250.26696   -323.36921   -182996.26    667.66223    -182328.6   0.45606776    34.520338 
   55300    312.62681    249.83596   -233.16038   -182992.43    666.51241   -182325.91   0.45606776     30.96164 
   55400     314.5475    249.12513   -320.67607   -182991.12    664.61606    -182326.5   0.45606776    31.581589 
   55500    318.42928    252.26535     -361.218   -182998.34    672.99355   -182325.35   0.45606776    31.816487 
   55600    317.82036    250.72546   -277.16416   -183001.85    668.88542   -182332.96   0.45606776    39.624494 
   55700    314.67711    248.16444   -291.26895   -182996.18    662.05312   -182334.13   0.45606776    39.711479 
   55800    318.14434    250.89029   -315.84214   -182999.66    669.32516   -182330.34   0.45606776    35.752017 
   55900    315.55988    250.52792     -299.393   -182998.28    668.35841   -182329.92   0.45606776    36.840015 
   56000    314.37265    247.44845   -181.50716   -182994.44    660.14301    -182334.3   0.45606776     41.51123 
   56100    312.51267    247.27054   -267.82362   -182991.61    659.66838   -182331.94   0.45606776    38.207727 
   56200    314.98287      248.217   -312.97161   -182997.47    662.19336   -182335.28   0.45606776     41.57568 
   56300    314.87194      248.539   -313.56176   -182995.21    663.05237   -182332.16   0.45606776    39.168594 
   56400    318.75593    251.29522   -293.89475   -182998.95    670.40543   -182328.54   0.45606776    35.801474 
   56500    314.93407    249.84111   -322.67535   -182994.76    666.52615   -182328.23   0.45606776    34.808079 
   56600    318.71485    250.66728   -363.35712   -182996.55    668.73021   -182327.82   0.45606776    34.202673 
   56700     317.4242    250.69685   -275.83702   -182999.42    668.80909   -182330.61   0.45606776    37.848437 
   56800     316.9015    250.57401   -344.33108   -182996.33    668.48138   -182327.85   0.45606776    35.765197 
   56900    315.59573    250.35867   -120.15194   -183001.49    667.90689   -182333.58   0.45606776    41.098306 
   57000    318.35967    249.67173   -269.72697   -183000.35    666.07427   -182334.28   0.45606776    40.946106 
   57100    318.26229    250.58214   -376.74304   -183002.95    668.50306   -182334.45   0.45606776    42.214388 
   57200     316.7888    248.91909   -276.60637   -183000.51    664.06639   -182336.45   0.45606776    44.960394 
   57300    316.30014    249.83297    -214.1325   -182996.74    666.50443   -182330.24   0.45606776    39.020471 
   57400     313.4591    247.78444   -294.23204    -182990.2    661.03936   -182329.16   0.45606776    37.003579 
   57500      314.098    247.63478   -250.86392   -182993.14    660.64011    -182332.5   0.45606776    39.052239 
   57600    317.58166    251.43138   -363.05627   -183000.11    670.76867   -182329.34   0.45606776    37.919959 
   57700    316.02433    249.05588   -346.97191   -182996.71     664.4313   -182332.28   0.45606776    40.322193 
   57800    315.93585    249.63041   -168.94423   -182995.69    665.96405   -182329.72   0.45606776     38.33636 
   57900    316.48365     249.3401   -189.20106   -182997.32    665.18955   -182332.13   0.45606776    40.466741 
   58000    317.27594    250.48284   -236.26921   -183000.81    668.23816   -182332.58   0.45606776    40.013745 
   58100    317.27035    250.53941   -312.50492    -183003.2    668.38907   -182334.81   0.45606776     43.65715 
   58200    314.32146    247.23267   -320.89421   -182991.67    659.56734    -182332.1   0.45606776    40.623557 
   58300    314.97353    249.04929   -404.77997   -182994.99    664.41372   -182330.58   0.45606776    39.090121 
   58400    313.68419    247.37726   -199.65028    -182989.8     659.9531   -182329.85   0.45606776    38.172591 
   58500    316.37986    249.69605   -315.91643   -182996.15    666.13916   -182330.01   0.45606776    38.649946 
   58600    318.78599    250.37863   -231.24826   -182999.48    667.96014   -182331.52   0.45606776    40.812736 
   58700    318.14628    251.46323   -309.91068   -183004.66    670.85365   -182333.81   0.45606776    42.618983 
   58800    321.16991    251.75371   -518.97316   -183007.82    671.62857   -182336.19   0.45606776    46.710572 
   58900    316.82724    249.70188   -286.32404   -183001.45    666.15471    -182335.3   0.45606776    45.009288 
   59000    315.37187    247.22326   -355.90674   -182992.46    659.54224   -182332.91   0.45606776    41.864981 
   59100    315.89875    248.78848   -47.682924   -182996.14    663.71794   -182332.42   0.45606776    42.050624 
   59200    318.70824    250.99848   -403.23055   -182997.38    669.61377   -182327.76   0.45606776    38.211632 
   59300    317.66308    250.70479   -269.72415   -182999.83    668.83027      -182331   0.45606776     41.83965 
   59400    317.51429    250.24839   -281.14933   -182997.86    667.61268   -182330.24   0.45606776     40.09002 
   59500    315.58351    248.59924    -416.0739    -182993.7    663.21308   -182330.49   0.45606776    40.594396 
   59600    315.88051    248.70944     -355.137   -182995.05    663.50708   -182331.54   0.45606776    42.548105 
   59700     317.0788    250.97679   -245.47917   -182994.89    669.55591   -182325.33   0.45606776    36.958783 
   59800    318.00882    249.10352   -184.15686   -182993.43    664.55841   -182328.87   0.45606776    38.785793 
   59900    318.18572    250.94708   -117.93246   -182995.79    669.47666   -182326.31   0.45606776    36.508821 
   60000    315.63722    250.24469   -296.78279   -182994.78    667.60281   -182327.18   0.45606776     38.73515 
   60100    317.97648    249.77722   -369.62575    -182994.3     666.3557   -182327.95   0.45606776    38.339704 
   60200    320.26526    253.51009   -318.22872   -183002.73    676.31426   -182326.42   0.45606776    37.446699 
   60300    315.06308    249.39298    -371.0007   -182988.83    665.33062    -182323.5   0.45606776    33.952202 
   60400    317.58097    249.32236   -247.93023   -182993.96    665.14222   -182328.82   0.45606776     40.25815 
   60500    316.47303    247.77347   -295.53334   -182992.69    661.01009   -182331.68   0.45606776    43.512749 
   60600    318.57141    249.67412   -399.19106   -182999.08    666.08064      -182333   0.45606776      45.3187 
   60700    313.75631    247.27711    -35.50075    -182993.9     659.6859   -182334.21   0.45606776    45.273887 
   60800    315.83032    249.63642   -222.81793   -182992.57    665.98009   -182326.59   0.45606776    37.562307 
   60900    317.96431    250.52882   -223.23794   -182997.81    668.36082   -182329.44   0.45606776    40.714561 
   61000    317.91818    250.49606   -405.45502   -182996.26    668.27343   -182327.99   0.45606776     40.26436 
   61100    317.15032    250.31915   -207.24179   -182996.14    667.80145   -182328.34   0.45606776    39.807061 
   61200    317.18477    251.08501    -302.3916   -182996.58    669.84463   -182326.73   0.45606776    38.792777 
   61300     315.4755    249.91249   -367.20205   -182989.18    666.71657   -182322.47   0.45606776    35.578297 
   61400     316.2528     249.2993   -359.11109   -182992.81     665.0807   -182327.73   0.45606776    39.355066 
   61500    314.96016    249.37464    -533.1473   -182989.75    665.28169   -182324.46   0.45606776    36.721827 
   61600    316.08098    250.28664   -354.92129   -182990.56    667.71474   -182322.85   0.45606776    36.473097 
   61700    319.05349    250.27596   -365.52708   -182997.21    667.68623   -182329.52   0.45606776    42.108699 
   61800    316.18551    249.36074   -283.80786   -182996.07    665.24462   -182330.83   0.45606776    43.903537 
   61900     315.9588     247.7609    -421.6762   -182990.02    660.97657   -182329.04   0.45606776    41.422372 
[...]
 1986000    330.62774    258.54124   -322.49645   -182979.26    689.73635   -182289.53   0.45606776    2114.2952 
 1986100    327.41269    256.17904   -106.62261    -182977.5    683.43447   -182294.06   0.45606776    2118.8708 
 1986200    330.27625    256.38202   -512.01455   -182975.19      683.976   -182291.21   0.45606776    2114.7882 
 1986300    326.59637     256.0416   -394.63113   -182975.56    683.06783    -182292.5   0.45606776    2116.5537 
 1986400    327.48099    255.75844   -314.74465   -182975.49    682.31241   -182293.18   0.45606776    2118.7146 
 1986500    327.25546    255.70341   -225.26507   -182973.59     682.1656   -182291.42   0.45606776    2116.7586 
 1986600    330.58654    258.31274   -266.53214   -182980.52    689.12676   -182291.39   0.45606776    2116.9602 
 1986700    330.78425    256.95567   -57.665542    -182979.1    685.50636    -182293.6   0.45606776    2119.2377 
 1986800    331.18203    259.82956   -248.52582   -182982.52    693.17333   -182289.34   0.45606776    2114.0313 
 1986900    327.38512    256.94232   -193.56919   -182974.13    685.47076   -182288.66   0.45606776     2115.235 
 1987000    331.65745    258.39948   -186.88434   -182982.49    689.35818   -182293.13   0.45606776    2118.7216 
 1987100    328.74026    255.77844   -286.45442    -182981.8    682.36575   -182299.44   0.45606776    2124.9174 
 1987200     327.0181    254.75728   -211.10126   -182976.57    679.64152   -182296.93   0.45606776    2121.4411 
 1987300    328.47434    255.13522    -249.5716    -182978.9    680.64977   -182298.25   0.45606776    2123.5781 
 1987400    329.66291    258.26169   -166.62249   -182982.93    688.99058   -182293.94   0.45606776     2119.255 
 1987500    329.58521    256.83093   -240.59937   -182977.97    685.17358    -182292.8   0.45606776     2117.792 
 1987600    328.70761    256.87681   -440.80874   -182977.53    685.29599   -182292.24   0.45606776    2118.4158 
 1987700    329.91911    256.88538   -243.54327   -182982.57    685.31884   -182297.25   0.45606776    2123.1234 
 1987800    330.37371    257.49324   -286.98161   -182985.22    686.94051   -182298.28   0.45606776    2124.6823 
 1987900    328.19658      256.237   -216.04618   -182978.58     683.5891   -182294.99   0.45606776    2121.7901 
 1988000    331.34833    257.49259   -129.08179   -182979.54    686.93878    -182292.6   0.45606776    2119.6694 
 1988100    331.07493     257.9149   -184.82392   -182980.95    688.06539   -182292.88   0.45606776    2121.3233 
 1988200    328.66881    256.32828   -266.62135   -182978.84    683.83262   -182295.01   0.45606776    2122.2534 
 1988300    329.76052    256.25521   -173.39538   -182982.75    683.63769   -182299.11   0.45606776     2126.285 
 1988400    326.78683     255.6422   -327.96324   -182976.72     682.0023   -182294.72   0.45606776    2123.6089 
 1988500    329.22715    257.68595   -383.13996   -182977.26    687.45461   -182289.81   0.45606776    2118.3077 
 1988600     326.8096      255.497   -300.59406   -182977.58    681.61492   -182295.97   0.45606776    2123.6018 
 1988700    330.42491    256.93245   -335.97155    -182981.1    685.44444   -182295.66   0.45606776     2122.783 
 1988800    327.66925    255.49191   -157.33536   -182975.92    681.60135   -182294.32   0.45606776    2121.8374 
 1988900    328.71604    256.93386   -125.99592   -182979.23    685.44818   -182293.79   0.45606776    2121.4533 
 1989000    326.96823    255.25721   -243.95343   -182976.49    680.97521   -182295.51   0.45606776    2123.7147 
 1989100     327.6223    256.10354   -324.85349   -182977.93    683.23305    -182294.7   0.45606776    2123.3342 
 1989200    326.91166    255.71479   -273.84497   -182976.34    682.19595   -182294.14   0.45606776    2122.3223 
 1989300    330.05471    258.76743   -262.18982    -182986.8    690.33978   -182296.46   0.45606776    2125.0349 
 1989400    330.04344    256.63986   -282.52526   -182982.09    684.66386   -182297.43   0.45606776    2126.2192 
 1989500    329.59022    256.63238   -226.94741   -182982.56    684.64391   -182297.91   0.45606776     2127.456 
 1989600    330.60379    258.50002   -389.41774   -182985.45    689.62639   -182295.82   0.45606776    2124.3264 
 1989700    327.26467    256.33816    -203.4993   -182976.19    683.85896   -182292.33   0.45606776    2121.1273 
 1989800    328.00218    255.72342    -148.0125   -182975.76    682.21896   -182293.54   0.45606776    2122.4535 
 1989900    327.91009    255.16874    -49.52543   -182973.95    680.73919   -182293.21   0.45606776    2122.6538 
 1990000    330.02965     258.1773   -315.66429   -182983.33    688.76545   -182294.56   0.45606776    2124.6628 
 1990100    328.09392    256.96148   -256.38486   -182984.55    685.52187   -182299.03   0.45606776    2128.5706 
 1990200    330.08352    257.12687   -223.39355   -182980.72     685.9631   -182294.76   0.45606776    2122.6396 
 1990300    327.73448     257.2698   -394.81694   -182978.03     686.3444   -182291.69   0.45606776    2121.2645 
 1990400    328.91109    257.03043   -161.69758   -182977.66    685.70583   -182291.95   0.45606776    2122.4083 
 1990500    330.23456     257.8382    -369.0024   -182980.67    687.86078   -182292.81   0.45606776    2122.5829 
 1990600    330.53294    257.99356   -212.38502   -182983.06    688.27525   -182294.78   0.45606776    2124.2815 
 1990700    328.07072    254.63031   -254.33857   -182974.51    679.30278   -182295.21   0.45606776    2124.5467 
 1990800    328.99848    258.32597   -320.53185   -182985.22    689.16207   -182296.06   0.45606776    2126.2734 
 1990900    327.15438    256.03093   -344.18952   -182978.19    683.03935   -182295.15   0.45606776    2125.1646 
 1991000    329.63915    257.83109   -450.76238   -182981.36    687.84182   -182293.52   0.45606776    2123.3234 
 1991100    329.40151    256.24238   -322.83928   -182983.45    683.60347   -182299.85   0.45606776    2129.8775 
 1991200    328.76986    256.61569   -400.00165   -182987.27    684.59938   -182302.67   0.45606776    2132.8366 
 1991300    326.75213    254.58728   -397.94462   -182974.87    679.18798   -182295.68   0.45606776    2125.8733 
 1991400     328.4832    256.12839    -398.0166   -182980.84    683.29934   -182297.54   0.45606776    2128.3546 
 1991500    328.57856    256.36254    -303.3067   -182981.67    683.92402   -182297.75   0.45606776    2127.5075 
 1991600    331.63656    258.24113   -244.82616   -182984.44    688.93571    -182295.5   0.45606776    2125.6998 
 1991700    328.20422    255.68114   -304.59789   -182979.85    682.10617   -182297.75   0.45606776    2127.4863 
 1991800    329.01487    256.01575   -99.321022   -182981.99    682.99885   -182298.99   0.45606776     2130.049 
 1991900    327.33838    256.70663   -347.16124      -182982    684.84197   -182297.16   0.45606776     2130.222 
 1992000    330.73699    257.44298   -287.76841    -182985.4    686.80641   -182298.59   0.45606776    2130.0393 
 1992100    332.76761    257.41775   -318.55779   -182986.09     686.7391   -182299.35   0.45606776    2130.5912 
 1992200    332.25585    258.93083   -364.96024   -182984.05    690.77571   -182293.27   0.45606776    2125.6364 
 1992300    328.77607     257.5662   -192.72763   -182980.71    687.13515   -182293.58   0.45606776    2125.7817 
 1992400    326.26192    255.32331   -210.74716   -182978.58    681.15157   -182297.42   0.45606776    2129.2369 
 1992500    327.72523    255.19496   -200.71565   -182978.63    680.80916   -182297.82   0.45606776    2128.6192 
 1992600    327.19274    254.82278   -181.84603   -182977.52    679.81625   -182297.71   0.45606776    2128.3995 
 1992700    330.22282    257.03938   -243.62429   -182982.58     685.7297   -182296.85   0.45606776    2128.5541 
 1992800    324.43305    254.14578   -244.08528   -182975.52    678.01015   -182297.51   0.45606776    2129.4807 
 1992900     327.5542     255.6658     -239.226   -182978.29    682.06525   -182296.23   0.45606776    2127.8639 
 1993000    328.93879    257.04565   -120.02572   -182982.82    685.74642   -182297.07   0.45606776    2127.9788 
 1993100    331.30749    258.27249   -184.67932   -182980.44    689.01939   -182291.42   0.45606776    2122.6116 
 1993200    328.93124    257.88844   -431.73228   -182978.47    687.99482   -182290.48   0.45606776    2122.5974 
 1993300     328.1937    257.86566   -261.00795   -182978.84    687.93404   -182290.91   0.45606776    2123.3208 
 1993400    330.13086    256.52911   -263.85634   -182981.53    684.36839   -182297.17   0.45606776    2129.1295 
 1993500    328.37055    256.93502    -266.2479   -182981.24    685.45129   -182295.79   0.45606776    2127.6291 
 1993600    332.44255    259.09241   -249.34392   -182984.87    691.20675   -182293.66   0.45606776    2126.3667 
 1993700    330.72637    258.04986   -112.33763   -182984.72    688.42545   -182296.29   0.45606776    2129.0639 
 1993800    326.93396    254.52989   -223.92843      -182978    679.03488   -182298.97   0.45606776      2131.84 
 1993900    331.22641    257.52754   -304.19057   -182981.63    687.03201   -182294.59   0.45606776    2127.1365 
 1994000    328.20426    256.90071    -176.5073   -182979.25    685.35974   -182293.89   0.45606776    2126.4223 
 1994100    325.86331    256.61786   -300.43585   -182974.23    684.60516   -182289.63   0.45606776    2121.7292 
 1994200    327.60277     256.6028   -289.49404   -182975.97    684.56499   -182291.41   0.45606776    2124.4295 
 1994300    325.04973    255.01575   -340.09898   -182970.53    680.33105    -182290.2   0.45606776    2122.7639 
 1994400    327.68241    256.03471   -284.32153   -182980.59    683.04943   -182297.54   0.45606776    2129.6579 
 1994500    328.96595     255.6165   -290.47702   -182980.11    681.93374   -182298.18   0.45606776    2130.5268 
 1994600    327.87763    255.44759   -279.42507   -182975.98    681.48311    -182294.5   0.45606776     2126.828 
 1994700    328.76562    257.11908    -138.4358   -182978.05    685.94231    -182292.1   0.45606776     2124.909 
 1994800     325.2496    254.79385   -297.59079   -182969.67    679.73907   -182289.93   0.45606776    2122.2671 
 1994900    328.08046    256.57254   -372.33134      -182979    684.48427   -182294.52   0.45606776    2127.1911 
 1995000    328.74474    256.91129    -252.3676   -182980.35    685.38798   -182294.97   0.45606776    2127.6653 
 1995100    328.88577    257.11778   -250.64966   -182981.09    685.93884   -182295.15   0.45606776    2128.2694 
 1995200    326.65068    256.06922   -282.23259   -182981.09    683.14151   -182297.95   0.45606776    2131.5789 
 1995300    329.08944    257.82615   -159.25983   -182983.73    687.82863    -182295.9   0.45606776    2130.0546 
 1995400    325.72126    255.07603   -219.97743   -182982.81    680.49187   -182302.31   0.45606776    2135.8738 
 1995500    328.11411    256.35299   -20.789182   -182979.07    683.89855   -182295.17   0.45606776    2128.3097 
 1995600    329.58895    255.36464   -235.32264   -182980.06    681.26182    -182298.8   0.45606776    2131.9765 
 1995700    330.13491    258.49506   -108.61623   -182983.86    689.61315   -182294.25   0.45606776    2128.7112 
 1995800    330.91802    258.62826   -301.58265   -182985.06     689.9685   -182295.09   0.45606776    2130.4215 
 1995900    328.91512    255.60223    -208.2341    -182979.1    681.89568    -182297.2   0.45606776    2130.6764 
 1996000    329.33431    256.49983   -302.96673   -182983.15    684.29027   -182298.86   0.45606776    2132.7131 
 1996100    329.55936    258.25143   -332.47573   -182983.76    688.96321   -182294.79   0.45606776    2129.6395 
 1996200    332.27905    259.15523   -253.92727   -182988.32    691.37435   -182296.94   0.45606776    2131.7591 
 1996300    327.00513    254.75847   -240.01944   -182978.08    679.64468   -182298.44   0.45606776    2133.9507 
 1996400    329.58765     256.5269   -258.51188   -182981.96    684.36251    -182297.6   0.45606776     2132.548 
 1996500    323.67457    253.64354   -360.85773   -182974.53    676.67026   -182297.86   0.45606776    2132.2079 
 1996600    325.29235    255.41134   -326.20971   -182976.83    681.38641   -182295.44   0.45606776     2130.346 
 1996700    325.80042    257.92467   -259.81395   -182976.38    688.09146   -182288.29   0.45606776     2123.836 
 1996800    326.71167    255.33506   -351.96143   -182973.01     681.1829   -182291.83   0.45606776    2128.0756 
 1996900     327.6735    257.84354   -345.22182    -182979.3    687.87502   -182291.42   0.45606776    2126.5898 
 1997000    327.15119    256.31331   -562.43769   -182978.92    683.79269   -182295.13   0.45606776    2130.2574 
 1997100    325.97153    253.87643   -306.87301   -182978.42    677.29157   -182301.13   0.45606776    2137.0631 
 1997200    326.94509    256.67656   -172.05756   -182980.73    684.76176   -182295.96   0.45606776    2131.7999 
 1997300    327.87682    256.94906    -363.4618   -182977.28    685.48874   -182291.79   0.45606776    2127.9023 
 1997400    327.49089    256.57208   -311.93395   -182979.87    684.48303   -182295.38   0.45606776    2130.7699 
 1997500    326.82367    256.80907    -452.5426   -182978.79    685.11528   -182293.68   0.45606776    2129.4216 
 1997600    325.86534    258.05491   -447.41943   -182979.34    688.43893   -182290.91   0.45606776    2127.3568 
 1997700    330.37295    257.33636   -239.00242   -182983.41    686.52197   -182296.89   0.45606776    2132.2906 
 1997800     329.1953    256.74056   -136.50008   -182983.22    684.93251   -182298.29   0.45606776     2134.346 
 1997900    327.57809    255.43271   -168.40177   -182979.59    681.44342   -182298.15   0.45606776    2134.3003 
 1998000     331.7634    259.33858   -249.08213   -182982.82    691.86351   -182290.96   0.45606776    2128.0513 
 1998100    327.28101      257.182   -264.54766   -182976.01    686.11016   -182289.89   0.45606776     2125.183 
 1998200     328.2237    256.75218   -308.77905   -182978.43     684.9635   -182293.46   0.45606776    2130.1362 
 1998300     328.3645    256.16858   -272.23896   -182978.16    683.40657   -182294.75   0.45606776    2132.3639 
 1998400    328.81841    255.47208    -86.74004   -182981.57    681.54845   -182300.02   0.45606776    2135.7254 
 1998500    327.78673    257.13864   -248.18338    -182983.3    685.99449   -182297.31   0.45606776    2134.5686 
 1998600    329.92849     256.9766   -190.23747    -182982.1    685.56222   -182296.54   0.45606776    2134.2489 
 1998700    328.01494    256.63632   -257.99903   -182981.68     684.6544   -182297.03   0.45606776    2134.7605 
 1998800    328.56824    254.82329   -205.60414    -182978.2     679.8176   -182298.38   0.45606776    2135.6432 
 1998900    327.19887    254.25123   -337.48844   -182979.17    678.29146   -182300.88   0.45606776    2138.3834 
 1999000    323.71591    254.20872   -202.07951   -182973.67    678.17806   -182295.49   0.45606776    2133.2483 
 1999100    326.85822    254.88725   -333.87396   -182978.62    679.98825   -182298.63   0.45606776    2136.7969 
 1999200    329.73093    256.65345   -328.55645    -182982.6    684.70011    -182297.9   0.45606776    2135.3408 
 1999300    326.80994    255.04548   -268.91803   -182979.48    680.41035   -182299.07   0.45606776    2136.8778 
 1999400     328.0031    256.76338   -156.18528   -182983.07    684.99339   -182298.07   0.45606776    2135.5084 
 1999500    326.93673    255.80066   -184.89339   -182981.87    682.42503   -182299.45   0.45606776    2136.9444 
 1999600    330.25234    256.33325    -386.3733   -182986.89    683.84589   -182303.04   0.45606776    2140.3079 
 1999700    328.77991    256.47874   -36.533519   -182984.98    684.23401   -182300.75   0.45606776    2139.9372 
 1999800    327.31023    256.50641   -166.43472   -182975.15    684.30782   -182290.84   0.45606776    2130.5079 
 1999900    326.99737    256.20731   -198.80694   -182975.92    683.50989   -182292.41   0.45606776     2130.211 
 2000000    327.06996    254.60119    -224.5541   -182979.11    679.22508   -182299.88   0.45606776    2137.0718 
Loop time of 156539 on 32 procs for 2000000 steps with 24000 atoms

Performance: 1.104 ns/day, 21.742 hours/ns, 12.776 timesteps/s
97.8% CPU use with 32 MPI tasks x no OpenMP threads

MPI task timing breakdown:
Section |  min time  |  avg time  |  max time  |%varavg| %total
---------------------------------------------------------------
Pair    | 19.561     | 32696      | 1.0156e+05 |23492.1 | 20.89
Bond    | 3.4934     | 1419.7     | 7818       |6661.3 |  0.91
Kspace  | 26691      | 94094      | 1.2729e+05 |13863.9 | 60.11
Neigh   | 5373.1     | 5428.6     | 5488.9     |  64.9 |  3.47
Comm    | 25.404     | 2850.4     | 6902.2     |4600.6 |  1.82
Output  | 271        | 271.15     | 273.07     |   2.1 |  0.17
Modify  | 16188      | 19134      | 22816      |2089.4 | 12.22
Other   |            | 646.1      |            |       |  0.41

Nlocal:    750 ave 2507 max 0 min
Histogram: 20 0 0 0 0 0 3 5 0 4
Nghost:    4111.12 ave 13293 max 0 min
Histogram: 12 8 0 0 0 7 1 0 0 4
Neighs:    201060 ave 974028 max 0 min
Histogram: 20 0 4 0 4 0 0 0 0 4

Total # of neighbors = 6433909
Ave neighs/atom = 268.08
Ave special neighs/atom = 6
Neighbor list builds = 48311
Dangerous builds = 0
undump             3
write_data 		   nve.data
PPPM initialization ...
  using 12-bit tables for long-range coulomb (../kspace.cpp:321)
  G vector (1/distance) = 0.272921
  grid = 45 45 90
  stencil order = 5
  estimated absolute RMS force accuracy = 0.00139674
  estimated relative force accuracy = 9.69982e-05
  using double precision FFTs
  3d grid and FFT values/proc = 15138 6348
WARNING: One or more atoms are time integrated more than once (../modify.cpp:279)
Neighbor list info ...
  update every 1 steps, delay 0 steps, check yes
  max neighbors/atom: 10000, page size: 100000
  master list distance cutoff = 13
  ghost atom cutoff = 13
  binsize = 6.5, bins = 11 11 29
  4 neighbor lists, perpetual/occasional/extra = 4 0 0
  (1) pair lj/cut/coul/long, perpetual, skip from (4)
      attributes: half, newton on
      pair build: skip
      stencil: none
      bin: none
  (2) pair buck/coul/long, perpetual, skip from (4)
      attributes: half, newton on
      pair build: skip
      stencil: none
      bin: none
  (3) pair table, perpetual, skip from (4)
      attributes: half, newton on
      pair build: skip
      stencil: none
      bin: none
  (4) neighbor class addition, perpetual
      attributes: half, newton on
      pair build: half/bin/newton
      stencil: half/bin/3d/newton
      bin: standard
write_restart 	   nve.rst
PPPM initialization ...
  using 12-bit tables for long-range coulomb (../kspace.cpp:321)
  G vector (1/distance) = 0.272921
  grid = 45 45 90
  stencil order = 5
  estimated absolute RMS force accuracy = 0.00139674
  estimated relative force accuracy = 9.69982e-05
  using double precision FFTs
  3d grid and FFT values/proc = 15138 6348
WARNING: One or more atoms are time integrated more than once (../modify.cpp:279)
Neighbor list info ...
  update every 1 steps, delay 0 steps, check yes
  max neighbors/atom: 10000, page size: 100000
  master list distance cutoff = 13
  ghost atom cutoff = 13
  binsize = 6.5, bins = 11 11 29
  4 neighbor lists, perpetual/occasional/extra = 4 0 0
  (1) pair lj/cut/coul/long, perpetual, skip from (4)
      attributes: half, newton on
      pair build: skip
      stencil: none
      bin: none
  (2) pair buck/coul/long, perpetual, skip from (4)
      attributes: half, newton on
      pair build: skip
      stencil: none
      bin: none
  (3) pair table, perpetual, skip from (4)
      attributes: half, newton on
      pair build: skip
      stencil: none
      bin: none
  (4) neighbor class addition, perpetual
      attributes: half, newton on
      pair build: half/bin/newton
      stencil: half/bin/3d/newton
      bin: standard
Total wall time: 43:29:01
